ITEM: TIMESTEP
0
ITEM: NUMBER OF ATOMS
91395
ITEM: BOX BOUNDS pp pp pp
0.0 100
0.0 100
0.0 100
ITEM: ATOMS id type x y z
1 1 22.2097 12.8644 16.4796
2 1 2.1154 75.1105 80.9457
3 1 79.9607 92.9985 8.4771
4 1 93.0685 50.1854 39.3369
5 1 14.1858 48.3251 68.1704
6 1 8.8925 97.7798 91.6773
7 1 88.7243 40.9565 85.5976
8 1 12.5436 91.0756 85.4668
9 1 58.7165 66.2342 35.0717
10 1 94.8839 6.6762 89.1000
11 1 26.1443 80.5090 4.9428
12 1 24.4280 19.7800 97.8263
13 1 20.9780 37.1101 29.8050
14 1 98.5917 61.5873 35.9728
15 1 90.7900 70.7227 70.3477
16 1 48.6387 49.7811 73.0741
17 1 1.0115 43.7278 98.1240
18 1 65.3736 37.8837 17.0110
19 1 35.8686 47.9911 63.0703
20 1 98.3134 49.6154 36.3607
21 1 25.3792 76.6069 46.3814
22 1 72.5141 28.3659 37.1291
23 1 95.5720 23.3439 31.8592
24 1 50.8803 52.5807 6.6539
25 1 97.1495 30.2649 5.3711
26 1 25.4905 39.9596 23.1556
27 1 15.4959 50.7018 79.6414
28 1 70.4856 42.5435 12.3871
29 1 95.4889 33.6717 10.3129
30 1 33.6473 69.7066 25.1045
31 1 18.2941 26.3620 55.1732
32 1 87.4582 13.2086 14.3770
33 1 42.8480 12.5387 97.9151
34 1 87.8641 6.4768 90.6872
35 1 28.4447 32.2952 33.8469
36 1 7.0001 77.8620 18.2511
37 1 20.8022 76.8606 6.0190
38 1 33.5961 56.1078 11.5789
39 1 42.5393 35.3767 32.1696
40 1 27.0431 33.9130 39.1919
41 1 12.8182 20.7783 91.0494
42 1 94.4523 99.2629 47.8660
43 1 13.5557 68.3771 93.6827
44 1 3.1004 2.2043 61.2535
45 1 3.9445 39.1578 37.7429
46 1 9.8981 74.5881 10.8887
47 1 27.3867 72.7241 61.8179
48 1 47.2616 4.8935 76.3053
49 1 82.5359 10.2187 98.6202
50 1 34.7388 42.4373 41.4490
51 1 63.2932 57.3174 56.0827
52 1 78.1339 92.7976 82.1745
53 1 72.0950 5.0556 24.8477
54 1 10.4857 85.4731 65.2115
55 1 3.3579 72.3254 33.7046
56 1 54.3401 57.9750 16.2315
57 1 39.8808 42.6455 61.4892
58 1 88.9646 61.5228 68.3678
59 1 66.4615 8.4461 29.9766
60 1 40.1757 44.4413 84.2004
61 1 52.5418 81.5532 90.6524
62 1 69.5964 11.3286 20.0941
63 1 82.8077 56.3788 51.5899
64 1 96.8830 36.7903 4.0948
65 1 25.5165 28.4737 51.2425
66 1 0.7174 98.8260 6.1924
67 1 23.2220 67.2449 97.7570
68 1 51.1839 34.1782 16.2474
69 1 90.3350 5.0077 6.9972
70 1 6.3782 46.6440 93.1186
71 1 55.5785 35.4667 23.8530
72 1 51.4484 44.1513 9.3452
73 1 0.6298 59.5034 85.8387
74 1 60.8838 32.6354 15.3219
75 1 73.9051 70.2156 84.6908
76 1 98.2867 11.2114 26.4587
77 1 34.3773 53.7705 5.3231
78 1 27.5759 79.4147 4.8367
79 1 81.7876 18.4641 30.5077
80 1 71.8076 76.4605 21.0816
81 1 40.5375 24.1889 51.3294
82 1 65.2402 27.0075 46.2148
83 1 53.5796 41.8974 51.3918
84 1 14.3999 4.0490 6.3167
85 1 97.2823 7.3934 38.6026
86 1 79.1639 85.0619 26.8471
87 1 63.9995 72.3960 91.5902
88 1 88.9124 43.5117 54.1343
89 1 80.0919 59.8740 35.6051
90 1 95.0385 99.7729 93.3037
91 1 34.5701 24.2329 49.3125
92 1 78.4803 27.0138 40.6601
93 1 15.1431 70.1595 73.7406
94 1 49.5588 73.7380 64.4413
95 1 92.9428 58.6574 35.6864
96 1 72.9650 5.6760 47.6327
97 1 96.5951 70.5204 99.8615
98 1 39.2850 39.2909 5.9556
99 1 36.0692 14.1208 39.5502
100 1 0.1891 43.8238 93.9150
ITEM: TIMESTEP
1001
ITEM: NUMBER OF ATOMS
91395
ITEM: BOX BOUNDS pp pp pp
0.0 100
0.0 100
0.0 100
ITEM: ATOMS id type x y z
1 1 76.2363 24.1160 27.0053
2 1 30.9222 9.2688 99.1947
3 1 66.7845 73.8449 69.4720
4 1 46.5060 81.6331 23.7745
5 1 38.8152 32.5860 95.2624
6 1 3.9035 7.5386 95.6116
7 1 68.7624 63.5900 81.9290
8 1 91.6852 89.6159 88.9811
9 1 83.8754 12.0381 63.5314
10 1 49.1089 78.0524 95.5149
11 1 36.4470 75.4785 21.2114
12 1 42.1456 72.3114 8.7096
13 1 86.2015 91.7060 87.2030
14 1 0.0752 80.3457 89.6979
15 1 98.3833 3.3542 56.3815
16 1 88.1926 73.1054 85.4342
17 1 69.8395 2.4170 87.8204
18 1 61.7730 24.7467 67.9827
19 1 51.4397 71.7388 47.2822
20 1 10.2474 91.2132 68.2892
21 1 71.3918 76.7575 51.2301
22 1 71.3859 21.1665 46.8770
23 1 69.1621 80.4932 96.8057
24 1 86.0759 4.1532 17.6762
25 1 67.9441 8.2087 99.5329
26 1 47.1171 68.6442 4.7807
27 1 43.0440 23.9600 10.4841
28 1 67.2599 97.6809 30.5105
29 1 92.8572 0.3113 66.2887
30 1 53.0684 36.9094 41.7529
31 1 60.0735 55.8039 50.8178
32 1 98.2991 76.8616 17.8485
33 1 91.7389 49.2421 1.4046
34 1 78.5977 35.2818 99.8885
35 1 54.3849 27.0357 75.1965
36 1 27.8131 2.4717 9.6424
37 1 65.7206 21.4088 23.7786
38 1 14.8936 25.6391 75.9916
39 1 51.3748 21.6015 24.7560
40 1 37.8230 99.6341 17.3927
41 1 80.2886 86.5678 95.5295
42 1 60.4796 10.0106 2.3170
43 1 44.2906 35.0730 86.2253
44 1 59.7042 84.3208 57.0477
45 1 22.7398 19.9579 39.5300
46 1 2.9304 49.7305 27.2600
47 1 4.5669 47.4583 64.1006
48 1 10.0724 60.8565 94.2941
49 1 37.6534 98.1726 78.1947
50 1 0.9617 94.5175 51.0001
51 1 60.0564 60.9222 39.1154
52 1 44.4124 51.8745 96.5610
53 1 21.8452 91.4609 97.5854
54 1 42.4852 24.7183 46.1850
55 1 10.1579 82.1421 31.4729
56 1 30.4243 67.3401 56.1303
57 1 58.5776 48.4508 45.0663
58 1 31.5721 28.2778 99.3885
59 1 40.2926 50.6972 39.7134
60 1 72.6281 17.3828 5.2047
61 1 97.4039 53.5616 55.0632
62 1 46.6880 4.9891 67.6680
63 1 56.5858 14.2603 52.3533
64 1 23.3603 64.0074 66.7896
65 1 29.6637 9.4102 79.7916
66 1 63.6453 60.4197 59.8025
67 1 71.9245 22.8406 40.6751
68 1 22.1516 7.1139 90.6694
69 1 4.6631 4.6092 32.2017
70 1 31.8772 3.9713 76.7369
71 1 11.7351 8.8412 8.7350
72 1 64.4317 16.9218 57.8435
73 1 20.0912 83.6540 18.7061
74 1 42.9803 55.2418 88.0194
75 1 21.5112 62.0462 3.1182
76 1 77.5311 52.7102 94.5051
77 1 77.5375 40.0797 41.5782
78 1 0.6491 83.8079 80.5410
79 1 56.8553 37.5424 80.4934
80 1 61.0270 18.9832 24.2303
81 1 60.5673 67.8060 11.3278
82 1 83.9697 50.3406 19.9858
83 1 56.5459 87.6284 5.5104
84 1 22.0985 56.3234 0.1850
85 1 17.9775 23.6721 88.4082
86 1 52.4208 63.2184 0.3071
87 1 38.6733 44.7177 83.8888
88 1 19.4664 6.5268 82.4844
89 1 21.2053 69.0830 9.1538
90 1 67.2512 42.3254 92.8028
91 1 20.0420 6.7131 53.3525
92 1 91.7609 20.3531 83.4858
93 1 33.9367 9.9010 58.9819
94 1 52.1942 83.8392 10.2935
95 1 64.5251 62.0421 99.4931
96 1 32.8056 4.4594 41.1225
97 1 46.4433 36.8952 63.0466
98 1 26.5846 18.3141 45.2769
99 1 72.6961 89.1469 66.3703
100 1 37.7359 74.6628 18.8856
ITEM: TIMESTEP
2002
ITEM: NUMBER OF ATOMS
91395
ITEM: BOX BOUNDS pp pp pp
0.0 100
0.0 100
0.0 100
ITEM: ATOMS id type x y z
1 1 75.1999 48.0896 27.0807
2 1 69.2260 41.6415 62.0063
3 1 66.3667 39.3208 98.5978
4 1 45.7038 98.4106 23.5206
5 1 16.6961 63.0850 54.7049
6 1 54.0319 99.5028 0.1068
7 1 45.3511 30.6921 42.7937
8 1 93.8160 80.8529 20.1655
9 1 70.4243 57.9634 40.8095
10 1 34.1961 59.8413 46.9041
11 1 54.9730 77.2972 96.7012
12 1 41.0850 42.6524 84.0661
13 1 12.9836 80.0837 39.1174
14 1 41.5145 29.6602 12.2720
15 1 74.5281 89.8818 50.2089
16 1 19.1782 31.0128 8.4386
17 1 83.0557 52.0715 97.8687
18 1 77.2395 72.6180 43.7998
19 1 34.8773 27.5949 98.8523
20 1 23.0752 14.6739 47.0920
21 1 51.7976 17.7414 34.9719
22 1 29.2563 74.1474 48.8311
23 1 77.7285 9.1993 31.6069
24 1 29.8292 45.8375 40.3003
25 1 26.1044 81.7895 90.6713
26 1 77.5084 70.0510 58.8931
27 1 33.5725 91.8474 64.8633
28 1 88.9470 45.2896 41.2095
29 1 7.6968 33.7385 38.5848
30 1 49.4214 47.5131 91.7921
31 1 50.7310 84.5295 12.8417
32 1 57.2134 53.7898 15.5849
33 1 24.5120 50.0342 52.1255
34 1 90.0068 16.4489 30.4733
35 1 24.0073 78.2597 21.5908
36 1 89.8743 93.0547 11.1980
37 1 21.6874 38.4326 86.7096
38 1 12.1919 34.4511 70.1294
39 1 72.3111 35.6408 96.3176
40 1 35.2467 61.3513 61.5370
41 1 80.0433 35.6846 41.0307
42 1 41.8204 5.8707 73.2647
43 1 76.8646 82.0622 71.4379
44 1 59.2533 56.4248 64.3702
45 1 0.8063 44.7896 3.9713
46 1 48.8374 14.8734 0.9332
47 1 73.0466 70.4541 38.6695
48 1 6.5472 97.4925 15.0826
49 1 48.8320 27.2076 13.2355
50 1 51.2785 19.5901 36.0785
51 1 60.6502 38.6837 51.9450
52 1 23.2009 69.6004 63.4547
53 1 69.2964 33.9758 94.0480
54 1 62.4035 12.7224 97.5070
55 1 56.8900 69.8414 37.2232
56 1 44.2279 73.2478 86.5343
57 1 96.0470 98.9987 59.5249
58 1 8.7450 57.8434 20.4420
59 1 64.8339 33.5672 52.2140
60 1 66.0937 90.8315 79.2730
61 1 2.1135 15.3004 86.8747
62 1 74.3224 14.7886 58.8919
63 1 58.7591 77.4922 81.3415
64 1 67.3986 71.3222 66.6691
65 1 15.0989 68.4564 47.1124
66 1 97.7798 70.8840 37.4132
67 1 91.0052 23.0380 46.7425
68 1 6.3627 62.8712 55.8545
69 1 50.4463 20.6660 49.4403
70 1 45.9175 2.1843 16.2375
71 1 90.1892 78.8947 11.9894
72 1 97.2721 46.5309 75.0007
73 1 54.1790 76.4323 66.2434
74 1 6.5112 91.3552 76.8434
75 1 22.1600 22.6361 68.6662
76 1 70.0931 8.7065 90.5036
77 1 74.6935 98.4037 43.2724
78 1 8.6220 90.5674 81.2870
79 1 0.0222 53.0026 0.7475
80 1 35.1502 86.9446 67.3811
81 1 85.0617 55.7182 77.4162
82 1 48.6186 50.2788 59.7991
83 1 14.0601 64.3442 85.5688
84 1 15.9518 37.6844 92.0303
85 1 31.1399 87.5200 64.1219
86 1 84.3437 14.2744 78.7022
87 1 2.9696 39.4575 27.9808
88 1 64.1153 76.4649 34.5086
89 1 83.7092 55.1710 75.2974
90 1 72.5136 13.8410 73.1457
91 1 82.6303 3.5020 16.2385
92 1 52.0410 5.8836 36.6094
93 1 83.9387 10.1042 13.9941
94 1 11.9240 54.4878 30.4098
95 1 81.6336 58.2184 67.0007
96 1 30.7558 49.1789 37.0669
97 1 49.7265 68.8267 45.0832
98 1 6.6675 37.0863 88.8519
99 1 82.3199 83.2917 18.1099
100 1 7.9371 81.3273 66.5949
ITEM: TIMESTEP
3003
ITEM: NUMBER OF ATOMS
91395
ITEM: BOX BOUNDS pp pp pp
0.0 100
0.0 100
0.0 100
ITEM: ATOMS id type x y z
1 1 50.8269 68.7163 93.0891
2 1 12.9108 16.9504 58.9867
3 1 70.6803 64.3591 25.3944
4 1 62.2190 56.0231 2.4151
5 1 62.2355 45.1126 85.3310
6 1 65.5334 54.6740 89.5502
7 1 66.3856 25.0554 46.7577
8 1 67.2443 82.0696 28.3352
9 1 72.6502 68.2800 14.7150
10 1 15.2907 50.1699 41.1149
11 1 13.3579 8.7657 89.7627
12 1 19.1549 36.7570 46.6155
13 1 8.3028 13.8184 52.5431
14 1 69.9384 84.4481 86.2508
15 1 54.5029 28.6799 57.9564
16 1 62.2993 28.6907 66.7221
17 1 17.4183 29.5814 93.0068
18 1 51.0029 15.0522 66.8419
19 1 22.9714 3.4854 87.1903
20 1 43.4421 77.7371 85.4493
21 1 57.3504 9.6896 32.0222
22 1 25.2925 60.4170 41.0861
23 1 41.2253 65.4573 3.1844
24 1 13.2283 88.8526 83.6157
25 1 94.1098 20.9724 34.1036
26 1 11.1831 64.0385 78.1465
27 1 61.7851 59.6497 80.2466
28 1 8.8295 74.2148 89.2553
29 1 64.5969 68.3983 64.3162
30 1 82.3805 39.6783 85.8131
31 1 27.0098 11.5177 6.1602
32 1 9.8357 45.6263 59.5215
33 1 63.5626 56.4549 20.6921
34 1 86.5705 21.0920 82.5731
35 1 71.4156 35.5251 42.2039
36 1 81.3717 98.5221 24.3201
37 1 68.8696 7.4317 8.0836
38 1 45.0981 1.8368 91.0454
39 1 38.6323 38.1217 32.5812
40 1 29.8862 9.3283 60.7438
41 1 25.3375 34.7037 33.6125
42 1 33.9622 87.9409 47.0968
43 1 50.9976 78.4037 30.7879
44 1 76.0523 18.0492 70.8352
45 1 14.3840 68.8911 46.8842
46 1 6.5254 60.0963 69.1415
47 1 20.2117 93.5284 22.7434
48 1 31.1339 73.5981 20.0349
49 1 92.1290 64.0962 74.8840
50 1 11.8973 82.1694 56.8836
51 1 76.9539 7.1614 60.8465
52 1 68.9602 49.4738 83.5299
53 1 93.9615 22.2931 6.0669
54 1 77.3056 48.0688 5.8052
55 1 8.9126 22.7749 0.4545
56 1 47.0063 37.0300 4.5721
57 1 24.1002 74.0033 80.7405
58 1 0.4040 10.6389 99.8263
59 1 64.8754 68.4871 37.9363
60 1 50.4386 50.7792 34.7878
61 1 68.9739 57.2614 94.3696
62 1 0.6817 88.5143 94.9071
63 1 14.7216 22.1959 5.0542
64 1 23.5076 63.9288 21.6813
65 1 85.2104 91.4560 2.7705
66 1 50.6927 1.5642 61.9253
67 1 34.7458 84.5880 91.7476
68 1 49.8472 95.2646 86.6747
69 1 9.6634 35.6120 34.0444
70 1 30.3650 79.7410 30.0923
71 1 37.9207 8.5770 51.9939
72 1 11.7089 86.9126 79.8365
73 1 30.2272 0.4564 7.1501
74 1 21.7959 49.8156 73.1241
75 1 9.8932 70.8325 54.6666
76 1 61.9644 92.7778 95.2931
77 1 73.7356 69.2664 76.2742
78 1 67.3033 1.0263 99.6683
79 1 63.6934 48.8672 45.2759
80 1 23.4215 47.6975 73.3464
81 1 25.4256 84.5235 21.0719
82 1 85.8366 58.3992 83.7655
83 1 41.6946 32.1277 69.7636
84 1 36.2971 95.2780 74.0515
85 1 42.9473 17.3462 55.6542
86 1 59.5692 96.8707 74.3748
87 1 25.3656 26.1900 58.0112
88 1 11.9334 69.5495 7.9180
89 1 57.3350 98.2377 87.2949
90 1 84.4337 74.9930 92.8846
91 1 92.9932 16.2154 22.8549
92 1 92.4313 27.4673 37.9727
93 1 4.1581 89.9254 7.2164
94 1 52.9692 21.9587 2.7491
95 1 28.9885 66.4049 8.9169
96 1 85.1319 69.1782 5.8412
97 1 40.3842 80.8727 93.1955
98 1 62.8928 68.1118 87.6700
99 1 45.4480 70.7303 57.7700
100 1 69.5011 88.2358 78.9881
ITEM: TIMESTEP
4004
ITEM: NUMBER OF ATOMS
91395
ITEM: BOX BOUNDS pp pp pp
0.0 100
0.0 100
0.0 100
ITEM: ATOMS id type x y z
1 1 12.7438 93.1992 4.9992
2 1 75.6674 28.5359 77.9860
3 1 1.4726 22.0603 7.9944
4 1 75.2485 19.4041 92.7646
5 1 41.0986 71.9342 82.4923
6 1 95.3147 46.1670 67.1082
7 1 36.4287 28.3544 68.6836
8 1 40.4224 57.2433 19.8586
9 1 71.4748 96.9392 53.7826
10 1 52.0035 85.4291 15.1559
11 1 39.3474 17.3733 54.6396
12 1 61.6362 91.3948 83.0885
13 1 64.6474 77.4674 62.8674
14 1 57.0899 4.7731 2.4384
15 1 85.2184 28.1940 35.0918
16 1 44.9367 4.2417 96.1594
17 1 10.3005 96.8195 70.7886
18 1 94.3066 5.2273 44.7447
19 1 95.2746 64.6440 54.6801
20 1 67.1554 18.6262 74.5948
21 1 27.5699 28.1678 59.7433
22 1 2.1100 5.4036 1.5852
23 1 76.6783 2.6911 9.5719
24 1 60.6606 47.4919 36.6049
25 1 35.5626 85.9527 7.7869
26 1 92.6132 23.5748 48.7698
27 1 95.7009 63.8823 25.1280
28 1 98.2360 81.4533 31.4111
29 1 59.9177 55.6194 61.6642
30 1 12.2422 64.5484 21.4144
31 1 31.9308 54.5396 21.3019
32 1 89.2201 41.7561 16.5476
33 1 6.0812 78.1441 82.8304
34 1 8.0008 54.2629 65.3289
35 1 90.8274 4.8265 34.7532
36 1 11.9397 42.8639 37.2161
37 1 59.5344 67.5135 96.4526
38 1 16.2857 79.9217 84.6048
39 1 56.5071 78.7785 34.9643
40 1 3.4646 15.0694 16.7419
41 1 87.5360 95.7893 40.2618
42 1 65.6318 30.3350 44.5574
43 1 62.0679 85.6184 42.6778
44 1 69.8998 24.8744 32.8589
45 1 21.9486 86.5046 11.8490
46 1 76.9977 63.1870 65.0000
47 1 87.6940 53.0808 7.5838
48 1 93.1127 33.7374 2.9774
49 1 53.3162 35.8439 91.1766
50 1 51.0702 5.3378 23.8065
51 1 22.3175 76.4067 6.5865
52 1 32.5488 67.0756 61.3377
53 1 64.7616 55.9364 17.5716
54 1 67.4331 95.0947 4.1096
55 1 36.1834 29.1585 14.8121
56 1 26.4414 2.5437 64.2761
57 1 61.2441 50.3439 31.4029
58 1 97.6200 61.9203 88.7374
59 1 30.6081 75.5218 0.5911
60 1 67.6845 74.8170 26.9912
61 1 99.8119 49.8263 36.9385
62 1 18.4982 15.5441 20.6640
63 1 53.6146 53.6556 53.0488
64 1 85.9517 0.1547 26.6929
65 1 88.5651 9.9934 19.4745
66 1 32.6738 81.2647 58.3850
67 1 55.5667 92.5028 48.7330
68 1 94.7010 13.4136 39.9766
69 1 82.2292 15.0327 17.5569
70 1 38.1739 92.8665 18.1945
71 1 95.5624 67.1984 47.1240
72 1 1.7658 52.4717 41.5671
73 1 79.0814 55.9232 97.3754
74 1 11.1917 91.4965 37.9567
75 1 50.7402 85.3206 68.4830
76 1 94.6166 98.4666 64.1543
77 1 55.9783 25.2981 27.5473
78 1 25.3753 78.4796 61.5469
79 1 73.5762 81.6239 89.3354
80 1 14.6953 87.5075 64.5749
81 1 91.7998 92.8721 42.6638
82 1 71.4184 82.5936 25.7489
83 1 48.6030 25.9264 8.8483
84 1 69.7965 57.2272 39.9967
85 1 21.2561 18.9474 27.9470
86 1 98.2148 96.2574 84.4793
87 1 6.8390 83.1858 75.5636
88 1 93.8611 46.6858 51.4906
89 1 56.7708 54.5964 31.3742
90 1 16.1411 71.1774 91.2557
91 1 66.6384 82.9127 52.1278
92 1 50.5138 98.5473 99.4545
93 1 60.8730 37.0878 37.2434
94 1 67.1867 22.4371 98.0227
95 1 71.2992 16.1129 36.4165
96 1 22.3694 8.6071 64.4835
97 1 10.4408 39.6167 66.9515
98 1 16.1239 88.4148 18.4932
99 1 61.0628 92.3790 9.5369
100 1 10.4956 12.5695 35.7529
ITEM: TIMESTEP
5005
ITEM: NUMBER OF ATOMS
91395
ITEM: BOX BOUNDS pp pp pp
0.0 100
0.0 100
0.0 100
ITEM: ATOMS id type x y z
1 1 67.1590 53.8629 29.8186
2 1 61.8062 44.6496 35.2645
3 1 38.2449 35.9348 51.1752
4 1 38.0244 31.9505 32.1024
5 1 21.8995 20.9800 28.6064
6 1 97.2257 20.4174 44.4584
7 1 90.8535 1.1503 60.4862
8 1 87.0190 16.7551 81.2718
9 1 64.6106 82.1283 7.0922
10 1 7.0972 14.2983 97.8968
11 1 87.9394 57.2364 52.8443
12 1 25.5094 21.1904 23.4504
13 1 73.0062 63.4023 50.1775
14 1 83.3559 5.9297 3.6225
15 1 82.0706 41.6320 66.5541
16 1 40.4219 43.8561 2.2517
17 1 53.0424 3.5442 35.1417
18 1 13.6704 21.7834 90.7499
19 1 96.9340 3.3076 91.4013
20 1 85.1194 51.6212 48.3688
21 1 38.6993 65.3415 18.2472
22 1 7.4228 97.9811 82.1203
23 1 38.0060 6.5618 95.7255
24 1 5.1389 0.2632 28.8654
25 1 74.5256 84.5169 58.4904
26 1 46.0172 1.4921 34.8008
27 1 8.3837 21.9354 6.8541
28 1 89.6706 70.7944 45.4309
29 1 93.1053 20.8523 95.3603
30 1 7.4213 79.9712 32.8678
31 1 13.1975 66.1601 63.5389
32 1 93.4191 27.6109 76.6144
33 1 92.1549 45.6283 41.6996
34 1 36.8560 98.3794 60.8284
35 1 92.2369 44.9441 88.2175
36 1 46.2531 15.7653 59.9070
37 1 86.9414 3.4258 28.3594
38 1 94.6277 27.0212 39.8364
39 1 32.7865 26.0466 39.2068
40 1 85.1777 32.9937 70.3319
41 1 24.5884 18.0968 80.7045
42 1 12.7822 77.3417 63.6469
43 1 53.6282 46.0576 53.5407
44 1 12.5242 24.6537 1.9040
45 1 69.9009 79.7684 68.9583
46 1 70.8702 86.3503 70.2077
47 1 35.0486 23.9338 41.0445
48 1 46.3208 27.2749 29.3742
49 1 70.9825 20.7338 76.7451
50 1 25.7323 40.6434 27.5563
51 1 82.1602 39.4140 97.8532
52 1 60.0752 1.6661 81.5141
53 1 68.9250 25.6119 26.8507
54 1 49.2229 66.6417 89.9695
55 1 16.6306 16.7326 69.7161
56 1 31.7849 22.7088 68.7468
57 1 6.0483 53.1365 64.0604
58 1 38.4706 12.5702 34.2574
59 1 43.1241 16.1103 48.8423
60 1 33.8818 90.0013 6.4300
61 1 66.9955 72.1927 60.8944
62 1 52.1827 11.5273 60.8179
63 1 56.6633 91.2828 87.2182
64 1 2.0533 98.4593 56.5443
65 1 91.5984 14.9234 69.6369
66 1 45.8381 13.4128 2.2720
67 1 21.6278 1.6721 59.7784
68 1 30.4926 95.3666 63.2579
69 1 76.3713 43.3766 26.7196
70 1 76.7363 46.7686 99.9555
71 1 59.2546 84.5158 28.7894
72 1 42.6867 24.0605 77.5416
73 1 75.7246 59.2680 73.1097
74 1 36.0583 87.8075 92.2301
75 1 66.3984 37.2970 84.1781
76 1 98.0598 57.8994 65.9847
77 1 85.0646 67.2651 19.6810
78 1 42.3108 61.2039 46.3778
79 1 67.9957 28.1536 15.8746
80 1 2.8421 3.8930 35.6726
81 1 2.1757 27.1684 51.3406
82 1 74.4154 58.8935 53.4576
83 1 24.2133 1.5756 12.9766
84 1 98.1824 92.7769 31.1138
85 1 32.0982 89.1324 7.8539
86 1 17.1412 11.7918 87.0918
87 1 0.6598 1.4456 81.3843
88 1 63.6906 56.3192 92.2862
89 1 48.3371 46.6843 42.0772
90 1 65.2238 32.3196 66.8395
91 1 70.3668 21.1468 59.4950
92 1 72.6798 96.1217 93.8904
93 1 20.5059 57.7296 46.9364
94 1 34.9247 34.2151 97.0940
95 1 3.6595 85.2536 45.3489
96 1 56.6681 73.9251 45.6359
97 1 98.7322 86.7629 21.3443
98 1 67.0425 47.5365 36.1080
99 1 35.1671 16.2752 45.7653
100 1 59.5661 79.8331 28.8776
ITEM: TIMESTEP
6006
ITEM: NUMBER OF ATOMS
91395
ITEM: BOX BOUNDS pp pp pp
0.0 100
0.0 100
0.0 100
ITEM: ATOMS id type x y z
1 1 77.3811 55.3773 25.8041
2 1 78.7007 60.2888 95.4884
3 1 28.8416 97.3132 55.5551
4 1 45.4777 87.4945 15.7884
5 1 46.1992 12.5488 61.3216
6 1 4.2491 98.0183 0.8147
7 1 93.2169 64.4201 82.2764
8 1 35.8121 24.4005 17.3153
9 1 53.1204 26.6571 88.0113
10 1 2.9939 8.4555 21.5811
11 1 8.2340 82.8009 0.4044
12 1 65.1655 45.5483 77.2739
13 1 41.0403 64.5052 63.9254
14 1 36.3841 11.4192 43.3023
15 1 87.5063 79.6383 37.1436
16 1 86.7258 43.8732 19.6244
17 1 86.4000 49.3639 43.3832
18 1 23.4915 76.4606 55.0223
19 1 20.7336 25.9314 38.2464
20 1 53.4325 80.5177 20.7245
21 1 73.8584 91.6228 39.5681
22 1 36.5829 47.7709 81.7103
23 1 9.2543 38.7262 2.9320
24 1 51.7844 94.4124 16.0252
25 1 25.5401 69.8903 69.0514
26 1 59.6723 24.1718 6.6566
27 1 22.2275 63.9050 29.6240
28 1 84.1724 61.6250 4.9988
29 1 8.8194 28.0594 57.3577
30 1 93.6876 10.3248 83.0667
31 1 57.2821 36.3918 64.2965
32 1 78.5013 35.8722 91.9689
33 1 55.0940 15.6908 54.6778
34 1 76.5473 58.6577 58.4123
35 1 2.7747 46.3335 36.5581
36 1 4.3788 68.1171 18.3120
37 1 34.9918 57.7593 44.0285
38 1 70.1770 84.4763 16.9246
39 1 27.8594 18.5817 49.9195
40 1 7.9256 74.1270 12.7941
41 1 94.6769 84.0370 96.9289
42 1 4.0581 20.5160 96.1024
43 1 98.4641 28.0702 59.8754
44 1 20.7497 89.4795 13.6857
45 1 68.8230 29.0148 37.3798
46 1 54.7945 42.7461 52.3412
47 1 67.9647 29.6236 73.8814
48 1 41.7190 2.1796 84.6647
49 1 28.1587 86.0238 74.4576
50 1 40.6710 65.0286 99.1950
51 1 30.7500 45.0436 14.8518
52 1 87.1369 55.2881 10.1927
53 1 59.7564 46.7943 30.7382
54 1 1.8691 21.6352 20.5971
55 1 71.5376 25.9236 97.8595
56 1 18.4045 89.3072 36.5275
57 1 99.9406 80.3778 60.4038
58 1 83.0631 89.6764 99.7587
59 1 17.0200 58.4745 38.6832
60 1 38.5457 63.2320 50.4160
61 1 81.0532 32.8279 52.9998
62 1 96.5573 9.0516 26.8508
63 1 10.1654 6.2719 1.6655
64 1 36.5496 84.8542 24.1677
65 1 32.4421 85.6332 15.0001
66 1 23.6841 71.1903 74.1040
67 1 35.8691 1.0498 38.1527
68 1 71.5475 71.4799 41.9803
69 1 34.8774 70.2067 94.8952
70 1 79.2792 22.9270 96.2643
71 1 60.9709 11.2435 33.6841
72 1 72.4080 86.9802 52.9492
73 1 13.7734 12.3552 32.5952
74 1 3.7505 41.8557 77.7131
75 1 46.1020 83.0340 65.7294
76 1 19.3313 21.4408 34.9667
77 1 53.8047 67.8273 17.3081
78 1 15.3274 1.2380 11.2853
79 1 75.1834 5.5378 60.5777
80 1 60.0878 99.2548 67.7640
81 1 69.9258 8.9633 87.6338
82 1 32.0017 31.2546 46.5671
83 1 70.7634 29.4449 77.7513
84 1 24.5611 12.2719 69.6693
85 1 92.1578 90.9653 6.2502
86 1 39.1640 28.7350 45.4695
87 1 5.0446 41.0701 96.0943
88 1 56.6949 21.7296 80.9230
89 1 39.7346 6.3779 35.2395
90 1 81.4062 22.0965 32.6544
91 1 27.1551 89.8073 29.4207
92 1 24.0330 92.7176 99.9775
93 1 59.3574 93.4793 76.8087
94 1 18.7615 68.3924 79.0106
95 1 74.2998 52.9953 51.5204
96 1 82.1840 68.9004 79.2916
97 1 20.7444 96.6433 73.2827
98 1 42.2361 59.9242 63.9790
99 1 80.1241 70.0789 84.4427
100 1 39.4758 42.1283 18.8584
ITEM: TIMESTEP
7007
ITEM: NUMBER OF ATOMS
91395
ITEM: BOX BOUNDS pp pp pp
0.0 100
0.0 100
0.0 100
ITEM: ATOMS id type x y z
1 1 51.5708 40.1557 66.4846
2 1 60.2922 85.7466 16.8292
3 1 91.5446 22.0525 72.0702
4 1 49.8242 70.2665 53.6265
5 1 65.2417 75.2024 19.3123
6 1 34.2351 86.7232 83.6111
7 1 68.1101 30.5320 20.6264
8 1 4.8535 93.4058 63.5840
9 1 41.3116 69.0123 45.7980
10 1 35.0677 50.1151 73.6603
11 1 83.7708 9.9590 6.4854
12 1 34.0290 3.9112 49.4822
13 1 82.3946 34.7691 47.5825
14 1 57.4341 91.3670 92.6631
15 1 63.1857 1.0189 18.9611
16 1 20.1681 59.8952 70.7594
17 1 8.8972 28.9666 50.7147
18 1 77.1368 34.4443 49.7183
19 1 49.6148 92.6760 84.5227
20 1 85.7885 16.6607 90.0826
21 1 39.3736 54.4746 61.4317
22 1 43.0176 34.3241 24.8017
23 1 51.3553 83.7632 76.5224
24 1 50.9901 34.2808 1.2722
25 1 20.7703 18.6813 58.8350
26 1 92.0761 31.6227 79.3145
27 1 32.9734 96.4162 19.4840
28 1 40.6888 14.9359 22.6222
29 1 10.5962 10.9513 62.8497
30 1 78.3856 8.1028 22.1310
31 1 32.1088 93.6768 59.8043
32 1 10.7272 36.9743 71.5180
33 1 97.8235 73.8370 18.1182
34 1 81.9185 0.3335 48.2391
35 1 34.5071 94.6326 4.5919
36 1 25.5568 25.9863 42.3381
37 1 92.3346 65.2621 12.1433
38 1 82.4865 62.9835 1.6154
39 1 91.8570 4.7436 60.9944
40 1 60.0838 60.8797 84.8275
41 1 12.3640 53.4672 57.3604
42 1 39.7668 52.8073 50.0944
43 1 75.8977 14.5891 2.9590
44 1 93.1492 31.3646 79.1733
45 1 31.9738 0.3944 21.5593
46 1 10.5440 82.2740 17.0791
47 1 99.3684 61.2701 32.2920
48 1 50.4768 96.1711 63.6149
49 1 75.3620 49.3740 53.2745
50 1 98.3919 60.4476 54.1922
51 1 87.3431 44.9204 47.3622
52 1 71.0207 15.9815 13.0208
53 1 61.8333 18.3452 43.5526
54 1 80.4448 30.9955 74.2290
55 1 32.7845 3.9763 9.1649
56 1 43.3867 31.7888 46.8952
57 1 52.3079 94.2692 47.2162
58 1 85.7476 85.0698 88.7442
59 1 53.7930 28.6174 78.6252
60 1 32.2681 89.5782 10.4847
61 1 67.8155 48.1283 60.7077
62 1 11.1225 97.1291 71.4441
63 1 28.5080 88.9492 45.2844
64 1 18.6058 43.0620 31.9319
65 1 70.8425 2.1265 88.0188
66 1 43.2339 11.2936 76.7866
67 1 98.8303 90.2734 16.4704
68 1 21.6610 98.7693 20.2749
69 1 30.1692 62.2837 29.1353
70 1 38.1366 74.1273 59.3312
71 1 81.0144 77.5482 79.9270
72 1 17.7826 25.6948 18.2571
73 1 12.2632 85.0285 0.3820
74 1 62.7514 87.2883 16.7496
75 1 93.1638 95.7476 58.0801
76 1 66.7131 18.6630 98.4143
77 1 73.9468 51.6219 50.0979
78 1 61.7978 18.6193 59.7017
79 1 6.9917 60.4796 57.4721
80 1 35.7585 9.0267 55.0140
81 1 43.7494 31.2384 42.8010
82 1 6.0924 8.5239 14.4328
83 1 55.3440 28.3110 23.5115
84 1 63.0486 59.6833 33.8235
85 1 93.7187 39.8177 18.9546
86 1 88.8757 70.2133 74.8897
87 1 84.8965 79.6185 84.7779
88 1 22.7663 61.5808 67.5703
89 1 29.2702 99.4282 80.7262
90 1 91.4628 15.2098 3.7724
91 1 2.8595 86.6709 54.6405
92 1 30.7714 80.5577 64.4059
93 1 61.9129 79.7580 46.9186
94 1 16.1764 91.7619 86.5267
95 1 24.8631 32.8872 82.0141
96 1 97.2239 77.5439 5.2356
97 1 40.8304 77.6078 46.5989
98 1 67.5896 3.6350 21.1639
99 1 75.9052 19.2562 97.1206
100 1 36.6705 19.4246 19.4334
ITEM: TIMESTEP
8008
ITEM: NUMBER OF ATOMS
91395
ITEM: BOX BOUNDS pp pp pp
0.0 100
0.0 100
0.0 100
ITEM: ATOMS id type x y z
1 1 17.5073 34.7439 58.1609
2 1 88.3135 93.3516 59.9873
3 1 63.2811 52.0943 33.6690
4 1 53.3953 16.5494 32.2793
5 1 19.9549 83.9824 16.3019
6 1 74.6939 6.6385 65.9717
7 1 76.5600 10.0592 77.2023
8 1 58.5927 68.6158 72.3267
9 1 16.3215 79.7915 78.1855
10 1 64.6841 50.4734 84.9907
11 1 88.0694 33.4798 53.2895
12 1 44.9823 42.5163 82.7861
13 1 66.3550 47.3899 78.8492
14 1 94.3108 40.7678 13.5402
15 1 91.9795 95.7358 40.9109
16 1 64.8403 9.0471 4.6453
17 1 9.4438 77.4463 45.9042
18 1 65.5389 55.4602 19.3850
19 1 81.4337 21.4195 18.2303
20 1 61.7807 86.9264 86.6153
21 1 43.8445 68.5461 82.5334
22 1 21.6252 39.4948 63.3390
23 1 83.9455 33.6002 62.1279
24 1 5.8558 93.2510 89.5997
25 1 92.2147 96.8281 84.5693
26 1 21.0950 58.1240 17.9770
27 1 2.0478 14.3350 84.1788
28 1 74.3697 75.9871 40.5897
29 1 2.6811 31.7775 45.5167
30 1 35.8085 50.1329 61.2289
31 1 11.8077 90.7871 56.0025
32 1 85.6131 47.4422 73.1342
33 1 89.5123 60.1085 40.8746
34 1 57.5813 16.6900 70.2444
35 1 3.7415 45.2468 54.5957
36 1 40.2629 48.2854 17.5717
37 1 7.8166 44.3152 93.3761
38 1 17.9793 28.3159 87.9042
39 1 26.7494 38.5709 10.1781
40 1 4.6638 66.0416 14.8838
41 1 55.8576 43.0228 9.4348
42 1 42.8912 24.8198 85.8467
43 1 26.2893 69.8612 68.4651
44 1 19.3170 55.5692 84.1389
45 1 10.0388 61.0543 16.9567
46 1 24.0791 64.8304 63.8137
47 1 66.4613 54.2602 78.3902
48 1 64.8408 21.3346 10.1372
49 1 1.0209 0.7001 10.6337
50 1 43.4227 0.5861 38.2663
51 1 77.7283 12.8503 78.7921
52 1 19.0017 22.8095 24.4022
53 1 32.3780 50.1098 68.0634
54 1 77.6050 2.1604 14.5497
55 1 74.8317 77.2435 94.4355
56 1 29.1136 22.5391 57.3759
57 1 7.8784 72.5240 47.8199
58 1 71.0046 15.8629 46.4830
59 1 34.5221 47.1365 55.7961
60 1 68.4626 86.6788 23.2992
61 1 42.6871 11.3127 33.4183
62 1 37.9937 44.1318 92.6854
63 1 90.9924 6.9087 41.3855
64 1 32.0055 36.1093 75.0582
65 1 19.7217 75.5835 91.7077
66 1 69.3768 41.1498 6.2635
67 1 10.4091 71.4878 11.3542
68 1 41.4265 87.1540 53.6127
69 1 33.6775 23.0926 54.0033
70 1 34.0136 95.8927 1.3522
71 1 94.5252 21.1314 57.4218
72 1 26.3716 81.7505 69.9070
73 1 23.4345 56.4918 90.8597
74 1 22.4028 81.3835 79.2972
75 1 38.2850 3.8345 16.6929
76 1 47.4045 47.0610 10.5786
77 1 28.6817 37.7849 81.6674
78 1 89.8322 60.3541 27.3697
79 1 68.5657 94.4671 11.0090
80 1 28.0823 54.6810 34.1057
81 1 86.4402 26.1413 88.2884
82 1 83.2569 16.8073 9.4044
83 1 67.6939 39.9283 23.2309
84 1 91.4968 8.8663 83.1028
85 1 56.1286 12.1957 37.5092
86 1 53.4364 17.2292 12.7701
87 1 27.2924 56.1102 77.2003
88 1 96.1691 14.8371 0.8559
89 1 98.1878 13.7091 75.1982
90 1 77.3629 8.4383 81.1274
91 1 24.9549 79.3341 31.8525
92 1 75.0542 84.0045 0.4412
93 1 52.3250 34.1923 84.3885
94 1 48.2759 38.2306 14.7734
95 1 28.3136 99.4030 85.6670
96 1 30.6503 61.8021 99.7887
97 1 68.9168 33.8903 4.0547
98 1 79.9273 28.5510 14.3692
99 1 11.5333 10.7138 11.3952
100 1 51.5940 76.3570 89.2712
ITEM: TIMESTEP
9009
ITEM: NUMBER OF ATOMS
91395
ITEM: BOX BOUNDS pp pp pp
0.0 100
0.0 100
0.0 100
ITEM: ATOMS id type x y z
1 1 68.6079 9.5665 94.7099
2 1 0.5732 75.2324 98.2353
3 1 89.4347 71.6105 52.4897
4 1 99.9532 62.5211 83.0600
5 1 18.1621 63.9912 1.3349
6 1 80.8268 41.2740 25.7946
7 1 25.8883 97.9799 86.6109
8 1 78.8700 50.5267 39.9096
9 1 59.0949 54.5321 88.6933
10 1 97.3091 93.1023 76.8041
11 1 40.5441 76.1347 77.9875
12 1 16.9978 81.8985 91.2188
13 1 75.1303 68.0959 21.7581
14 1 63.7744 63.0934 37.5109
15 1 11.2839 43.3951 92.0752
16 1 78.1293 35.4251 19.6045
17 1 46.0587 75.8050 68.5238
18 1 88.3099 31.1517 49.4445
19 1 25.7269 77.3351 42.0053
20 1 42.8306 81.4728 72.9876
21 1 47.1797 37.6588 68.8379
22 1 94.2400 42.4597 3.8955
23 1 87.8808 16.6404 90.1494
24 1 82.9544 65.9685 84.5911
25 1 25.9785 85.5833 56.1633
26 1 17.7158 25.4558 78.9852
27 1 84.2727 87.4768 18.4387
28 1 90.2022 49.3816 99.3211
29 1 47.6457 25.2134 5.9773
30 1 66.4979 0.4991 83.6009
31 1 31.0775 66.5865 49.9725
32 1 65.7223 5.3179 19.6776
33 1 89.3265 41.7536 56.5351
34 1 45.7069 91.0818 19.9470
35 1 83.8910 6.0080 85.7305
36 1 90.2924 78.9812 27.7126
37 1 11.4116 50.0857 66.5825
38 1 81.9199 50.5923 54.6656
39 1 93.6062 4.7779 31.8942
40 1 43.8164 63.9511 9.5046
41 1 87.4856 31.6408 18.5070
42 1 59.1517 14.0552 33.0060
43 1 86.1862 78.9351 28.1043
44 1 41.9718 50.7687 56.7015
45 1 30.0413 53.4100 77.3251
46 1 68.5981 95.0945 23.8647
47 1 67.8236 94.9691 9.6110
48 1 56.1920 98.4392 6.1431
49 1 36.2946 8.5000 58.5791
50 1 85.2727 24.1943 20.4243
51 1 53.0087 35.5382 82.6110
52 1 13.3964 91.4466 81.0740
53 1 1.5113 27.8453 91.3595
54 1 85.5204 49.3017 54.7324
55 1 8.0817 79.9810 7.6352
56 1 64.3901 11.3895 43.3687
57 1 36.0052 41.4817 57.7444
58 1 14.0383 22.3060 10.5474
59 1 65.2967 5.2968 65.8395
60 1 97.2990 88.9204 32.6214
61 1 21.4743 96.0332 44.3809
62 1 35.2402 12.6056 16.6564
63 1 74.1725 20.1403 17.9016
64 1 32.2234 91.3334 58.9366
65 1 77.5033 71.8900 94.9885
66 1 69.0403 12.5227 20.2091
67 1 70.2844 21.5014 82.6673
68 1 87.9667 41.4393 38.2330
69 1 12.0779 93.7819 48.7100
70 1 70.8058 15.7681 53.9550
71 1 77.7172 59.7906 37.9857
72 1 61.4927 99.5559 68.2671
73 1 50.3121 85.5377 47.0854
74 1 45.2174 55.7487 32.0358
75 1 7.1462 37.7063 73.0371
76 1 48.7563 85.4662 18.2178
77 1 22.2060 64.4310 81.8464
78 1 69.5509 44.4009 88.3249
79 1 67.5491 83.4820 90.3858
80 1 52.9936 58.8342 66.6889
81 1 97.2299 80.5991 3.4930
82 1 42.9201 86.8698 3.6374
83 1 63.0228 94.5005 31.1892
84 1 72.2158 31.1524 64.0046
85 1 93.6478 36.8952 96.0155
86 1 38.2194 39.1857 76.4203
87 1 36.0832 32.7849 18.5601
88 1 8.8978 83.7664 47.5947
89 1 65.1032 47.8015 37.4297
90 1 40.8613 7.9408 67.3914
91 1 51.2271 6.6225 62.8536
92 1 20.9627 13.8450 97.7052
93 1 7.9053 72.9885 69.7005
94 1 52.1731 8.5438 29.2212
95 1 16.1282 98.3467 9.9051
96 1 1.2591 21.8844 78.4701
97 1 84.3925 70.1536 43.3274
98 1 79.1071 67.7106 99.3669
99 1 43.9180 18.7732 6.6401
100 1 62.4067 93.4560 78.5901
ITEM: TIMESTEP
10010
ITEM: NUMBER OF ATOMS
91395
ITEM: BOX BOUNDS pp pp pp
0.0 100
0.0 100
0.0 100
ITEM: ATOMS id type x y z