ITEM: TIMESTEP
0
ITEM: NUMBER OF ATOMS
59616
ITEM: BOX BOUNDS pp pp pp
0.0 100
0.0 100
0.0 100
ITEM: ATOMS id type x y z
1 1 73.3725 0.1252 31.5716
2 1 8.0546 83.2030 28.9786
3 1 26.4598 30.4572 22.2100
4 1 21.7280 82.8772 97.2690
5 1 90.5247 24.1708 2.7661
6 1 77.9507 90.8599 57.7890
7 1 63.3142 65.3814 45.7557
8 1 39.5890 37.9164 43.0651
9 1 67.5342 87.3320 39.5831
10 1 65.7432 99.5260 89.3889
11 1 56.0910 87.8064 0.1908
12 1 59.3079 74.3768 61.8879
13 1 13.7896 53.4555 79.2769
14 1 0.6565 38.8993 38.8207
15 1 15.1384 35.5054 31.4236
16 1 65.0023 3.4712 23.5116
17 1 6.0651 72.6568 67.1821
18 1 8.3113 57.5439 53.0772
19 1 84.6566 72.8880 85.7661
20 1 12.0866 85.9832 4.0809
21 1 36.4609 84.7746 80.9521
22 1 70.0443 76.9942 66.1875
23 1 86.7552 3.7281 24.1297
24 1 13.1681 98.6063 37.7733
25 1 84.2669 82.9276 46.0695
26 1 18.0271 69.7714 50.1812
27 1 32.0591 20.8005 74.7678
28 1 30.1399 17.1782 99.0832
29 1 27.3729 92.7646 93.3964
30 1 97.8662 99.7387 58.6375
31 1 39.2894 12.7446 66.0364
32 1 96.9381 34.2589 49.7711
33 1 96.0807 31.5831 28.3432
34 1 39.0376 22.4416 26.5876
35 1 45.0233 88.5353 0.9504
36 1 63.1724 40.1817 97.5769
37 1 25.5705 26.9105 6.1497
38 1 25.3363 14.1005 76.0836
39 1 2.6416 27.1700 17.9635
40 1 0.3861 41.8644 6.5990
41 1 81.2614 50.1144 84.7048
42 1 73.7543 0.5310 53.2845
43 1 8.3703 73.3645 47.2054
44 1 18.1046 82.6610 60.7692
45 1 15.1811 14.1768 55.3718
46 1 17.9907 78.6682 36.6414
47 1 68.9041 82.1733 92.1264
48 1 71.7149 96.5089 84.1043
49 1 22.9510 17.5814 58.0800
50 1 40.7106 70.8364 19.4401
51 1 78.0870 95.1797 4.1106
52 1 51.0990 80.4797 99.0236
53 1 1.1757 83.1557 53.8331
54 1 96.5529 2.3026 97.8485
55 1 95.2946 44.8976 79.8415
56 1 65.8226 32.3710 54.4383
57 1 53.0244 12.7272 94.0174
58 1 63.8004 33.1844 98.0923
59 1 18.0689 21.4386 79.2438
60 1 24.6498 97.0990 32.5641
61 1 3.1681 59.6176 22.3030
62 1 82.3201 14.2105 81.5805
63 1 17.7988 57.0123 17.4358
64 1 4.2467 83.0402 76.9926
65 1 59.5928 14.2783 85.8392
66 1 65.5800 58.2687 99.6794
67 1 57.2951 33.3060 35.8649
68 1 98.5468 71.4327 88.9190
69 1 83.3214 62.2748 45.5168
70 1 11.1327 67.5355 11.0265
71 1 29.3053 90.0413 26.2082
72 1 7.3200 13.3284 1.9240
73 1 87.9589 79.6632 1.5886
74 1 77.3152 78.1506 5.6385
75 1 70.8907 37.4751 4.8619
76 1 73.9915 37.1449 26.5728
77 1 32.9252 64.0337 25.5284
78 1 62.8844 15.5617 10.0833
79 1 36.1706 58.7869 45.4181
80 1 83.9097 66.8292 38.7061
81 1 2.5400 14.3561 66.2781
82 1 62.6141 89.6961 36.0013
83 1 59.4165 37.8773 0.4184
84 1 63.7455 61.6676 66.9636
85 1 7.6557 69.2251 47.0560
86 1 79.3140 64.1713 10.3724
87 1 62.2705 85.5330 49.7412
88 1 75.5426 15.4473 90.6699
89 1 82.7325 12.2232 33.3369
90 1 22.9329 57.7378 54.8845
91 1 21.1042 92.8904 95.8176
92 1 20.8019 34.1110 43.5708
93 1 30.5105 68.7252 78.3352
94 1 73.2779 50.6161 38.8523
95 1 31.6118 56.3996 84.4320
96 1 36.1529 59.7636 44.5453
97 1 43.2536 47.1270 95.0832
98 1 63.0187 54.2343 80.9472
99 1 68.9759 78.0412 90.9397
100 1 35.7845 22.9623 77.6353
ITEM: TIMESTEP
1001
ITEM: NUMBER OF ATOMS
59616
ITEM: BOX BOUNDS pp pp pp
0.0 100
0.0 100
0.0 100
ITEM: ATOMS id type x y z
1 1 19.9817 23.5134 14.1541
2 1 23.5391 69.7040 42.9343
3 1 23.3803 34.4063 76.7016
4 1 2.2530 17.6293 89.8508
5 1 12.3152 45.6504 19.0468
6 1 41.9925 7.5112 41.9779
7 1 41.3435 13.1383 13.1483
8 1 43.0702 59.9923 82.3999
9 1 11.6891 46.8340 69.6066
10 1 66.3091 37.1644 9.2749
11 1 87.6631 63.8093 47.4851
12 1 77.5299 60.7665 83.1406
13 1 40.6203 46.7341 99.9563
14 1 70.0912 32.4853 40.8277
15 1 34.5146 31.9576 2.3947
16 1 10.4287 41.6147 49.8106
17 1 21.0565 26.5947 23.8256
18 1 67.5151 17.6042 77.3294
19 1 73.2351 24.3519 70.1796
20 1 11.5103 30.1636 54.5976
21 1 4.3042 7.0312 64.3251
22 1 9.1798 19.1565 26.6046
23 1 83.3287 88.8476 13.3173
24 1 26.0907 38.7127 96.5052
25 1 85.2155 23.3616 83.7335
26 1 12.8468 79.1890 78.6490
27 1 4.2985 42.3610 7.2836
28 1 20.7517 25.5885 33.0598
29 1 70.5708 25.6225 30.0016
30 1 60.1937 15.1696 40.4488
31 1 41.7333 56.5700 76.1341
32 1 37.0427 89.0009 7.6381
33 1 12.3350 39.1319 66.0255
34 1 83.2031 63.8340 55.3342
35 1 12.3602 85.8876 45.8747
36 1 70.0729 53.1350 6.3053
37 1 76.6116 73.7839 46.9031
38 1 50.4227 44.5170 16.8052
39 1 30.2880 9.1606 69.5346
40 1 61.5962 81.0148 93.8075
41 1 41.6272 39.0285 77.7156
42 1 4.2706 71.6236 11.1938
43 1 13.8011 7.4788 82.2156
44 1 92.1108 55.3562 78.0854
45 1 51.0373 55.5794 3.9490
46 1 99.7541 89.0608 97.7411
47 1 9.3684 48.6440 44.3923
48 1 81.8261 80.2277 80.6621
49 1 46.6432 34.2539 76.1521
50 1 1.7966 84.6971 50.4077
51 1 46.6227 15.6636 15.1412
52 1 4.8954 3.8359 34.2814
53 1 30.3562 27.2843 64.3735
54 1 0.4006 48.7022 68.2925
55 1 31.1835 42.5362 98.3566
56 1 98.9950 99.0125 93.0816
57 1 93.2421 89.2568 79.3492
58 1 13.5985 5.7382 72.2584
59 1 17.5109 35.5556 22.8708
60 1 0.1501 61.4761 42.5170
61 1 80.1831 36.9260 92.3440
62 1 65.3230 57.5192 61.6945
63 1 0.5811 53.2040 2.9663
64 1 79.3986 92.2609 0.0284
65 1 60.0753 84.5934 0.7320
66 1 22.4686 87.3097 51.0312
67 1 72.3355 56.0300 11.8785
68 1 48.5926 89.4944 38.1009
69 1 65.0336 58.6833 40.0772
70 1 12.8212 44.9286 6.9850
71 1 72.0993 24.6638 19.1865
72 1 42.2412 37.9837 31.6048
73 1 42.7992 11.2053 6.7913
74 1 5.0331 89.0921 98.9711
75 1 13.3771 15.2809 66.2934
76 1 11.5462 26.5925 5.6778
77 1 85.9438 84.1982 88.8884
78 1 1.0382 66.4384 16.6314
79 1 56.5732 97.3104 88.0724
80 1 97.8429 76.0667 63.0659
81 1 20.1666 66.4597 84.4310
82 1 93.6179 79.7915 28.9869
83 1 51.0520 70.7661 93.7773
84 1 99.9653 17.1356 65.0075
85 1 15.8185 88.3261 43.9989
86 1 26.9715 25.4559 94.3226
87 1 55.0975 65.4999 72.6067
88 1 7.5389 48.9356 16.4415
89 1 53.5486 51.4118 51.5414
90 1 7.7255 89.9104 29.3098
91 1 50.8412 17.8680 3.7678
92 1 39.2816 74.6432 66.4218
93 1 97.9722 97.3060 64.4043
94 1 29.3785 11.8785 82.5439
95 1 11.5232 19.1416 56.2355
96 1 90.0736 27.2898 48.3513
97 1 65.2445 40.4470 52.7372
98 1 13.0036 9.6908 95.1872
99 1 7.0573 82.0361 71.0731
100 1 27.4899 86.7160 82.1751
ITEM: TIMESTEP
2002
ITEM: NUMBER OF ATOMS
59616
ITEM: BOX BOUNDS pp pp pp
0.0 100
0.0 100
0.0 100
ITEM: ATOMS id type x y z
1 1 34.8871 66.3405 41.2916
2 1 82.1497 84.4567 28.6032
3 1 3.7291 60.3277 0.8805
4 1 98.5192 17.6662 55.7975
5 1 13.0927 38.2016 91.8657
6 1 2.1947 1.1255 59.5831
7 1 84.3677 8.0344 94.3244
8 1 77.3488 32.8970 58.8291
9 1 71.0048 42.3530 21.8381
10 1 67.9490 55.3904 0.9087
11 1 82.8275 72.8961 6.0105
12 1 28.5262 12.0212 86.0393
13 1 90.8074 72.8865 96.1326
14 1 18.7596 85.3568 11.7995
15 1 7.9721 66.9574 58.7142
16 1 19.1644 53.5701 29.7902
17 1 14.7961 43.5392 90.9171
18 1 38.6438 78.0356 90.6302
19 1 28.3244 33.8226 80.9707
20 1 1.1594 96.6922 95.9466
21 1 27.2904 2.1105 28.9378
22 1 84.4665 27.9636 18.3516
23 1 34.3092 96.0109 43.9050
24 1 99.3365 32.8899 72.7518
25 1 64.2745 12.8527 94.3133
26 1 23.9998 76.8697 26.8988
27 1 25.4188 10.2036 26.8529
28 1 90.8110 38.4487 7.7253
29 1 74.4665 99.2480 41.3595
30 1 73.0029 18.1872 71.7928
31 1 94.7166 25.9820 46.4862
32 1 75.5804 25.9866 70.6134
33 1 99.2390 92.4665 77.7192
34 1 34.3926 22.7018 3.7932
35 1 83.6997 71.2914 60.6792
36 1 1.3739 27.4752 53.0050
37 1 86.1152 62.1339 8.9852
38 1 3.5580 81.5082 81.6152
39 1 98.6829 7.5302 73.1230
40 1 22.4007 36.1318 37.9502
41 1 36.3324 62.8761 51.2377
42 1 49.8805 46.2127 33.7114
43 1 98.9997 34.3651 1.9117
44 1 92.0370 28.5782 74.8258
45 1 75.4703 2.7661 54.1242
46 1 7.0569 4.6374 86.1188
47 1 2.0304 38.4982 99.2402
48 1 98.8592 93.5456 63.1006
49 1 96.4704 46.0580 52.1521
50 1 58.4402 46.3539 12.5789
51 1 80.7893 44.6088 90.1483
52 1 65.1794 28.9674 74.5462
53 1 79.3142 43.4080 96.4131
54 1 74.1057 78.3096 95.4206
55 1 51.2826 56.5549 17.2431
56 1 35.1524 16.6658 12.2669
57 1 43.0167 6.1269 96.9721
58 1 34.9366 17.4901 10.3554
59 1 86.8773 62.2105 83.1484
60 1 81.0457 89.9305 13.7224
61 1 42.4010 88.2831 70.1646
62 1 36.9424 98.1340 61.5165
63 1 59.8241 96.2536 47.2781
64 1 86.6911 74.8909 80.1071
65 1 94.8826 93.4868 75.9747
66 1 18.7708 20.3190 36.3465
67 1 42.1534 8.5886 92.7751
68 1 38.3717 25.8596 20.0133
69 1 46.3990 92.8815 67.4107
70 1 37.3787 16.8822 5.1513
71 1 8.7913 7.5517 50.3795
72 1 10.1733 51.3065 4.5402
73 1 50.9196 47.7809 31.8200
74 1 38.1235 90.5084 11.9864
75 1 88.6299 63.4070 60.6308
76 1 64.2471 37.4432 24.7190
77 1 55.5617 93.8321 60.8203
78 1 77.1745 3.2137 58.0516
79 1 94.6099 99.2440 70.1195
80 1 17.5516 96.7805 8.5358
81 1 51.8638 41.0880 11.4007
82 1 89.4738 69.7245 97.9001
83 1 94.2836 63.9544 53.6641
84 1 44.1178 11.1903 52.5907
85 1 66.3385 69.6333 60.5483
86 1 44.5841 9.6409 81.2008
87 1 12.7556 63.3025 42.3526
88 1 3.6384 31.2380 21.5931
89 1 68.8778 35.3024 53.2925
90 1 19.3433 75.6995 82.9218
91 1 90.8088 26.5695 82.9867
92 1 80.5308 14.1310 21.1057
93 1 3.9780 93.3153 34.2996
94 1 93.3787 37.2249 97.7675
95 1 54.7596 75.1125 32.6976
96 1 70.7306 49.4968 55.2484
97 1 6.0006 69.9854 46.3827
98 1 17.1618 6.4552 40.2989
99 1 83.1524 71.4272 90.3063
100 1 77.9140 84.1190 82.6789
ITEM: TIMESTEP
3003
ITEM: NUMBER OF ATOMS
59616
ITEM: BOX BOUNDS pp pp pp
0.0 100
0.0 100
0.0 100
ITEM: ATOMS id type x y z
1 1 20.8379 32.0708 11.6380
2 1 64.7105 37.9976 53.1056
3 1 89.3157 86.0046 67.5204
4 1 34.6555 37.4237 67.0326
5 1 28.8628 81.7502 1.8748
6 1 62.8329 50.4545 45.2695
7 1 17.1858 3.1436 21.9950
8 1 99.4752 39.1843 11.2216
9 1 76.0516 93.9167 53.9803
10 1 75.6254 17.7326 43.0815
11 1 3.0979 34.2850 26.2281
12 1 94.2988 50.4042 68.9542
13 1 44.4311 43.9361 25.1408
14 1 15.4400 55.9158 83.3540
15 1 13.7674 82.5937 30.8808
16 1 6.3007 29.5890 63.9607
17 1 9.8905 59.7298 7.9493
18 1 63.0452 71.9212 54.3066
19 1 19.2506 34.7366 57.0397
20 1 90.6916 45.8896 25.8327
21 1 11.5058 81.1474 40.2987
22 1 73.1826 46.8137 82.5667
23 1 24.7392 27.1278 4.7153
24 1 21.1778 37.8362 93.9490
25 1 59.0014 3.1906 19.2896
26 1 29.3502 56.1085 63.8090
27 1 65.4509 45.6934 60.2709
28 1 65.9756 49.6436 79.4462
29 1 23.5221 67.9119 46.7884
30 1 79.3475 72.8499 41.2021
31 1 7.1238 92.7994 17.0655
32 1 40.2440 43.5915 70.6602
33 1 75.3040 8.9858 45.2953
34 1 23.6901 13.6055 82.5450
35 1 32.6351 15.0760 68.4325
36 1 2.6623 47.5536 0.8956
37 1 64.6542 5.0980 39.8479
38 1 86.0942 85.1740 96.2964
39 1 28.8512 88.7174 72.3315
40 1 7.7458 10.7275 94.4399
41 1 30.5808 28.9879 23.7154
42 1 17.0533 18.5294 14.7429
43 1 58.0459 94.3588 47.6482
44 1 97.2318 78.4798 9.0402
45 1 17.9108 60.0732 87.8530
46 1 43.1337 40.5787 66.4908
47 1 41.8166 44.2960 16.4175
48 1 74.0770 81.8693 33.9441
49 1 14.3914 77.8157 33.5799
50 1 38.3919 28.7267 16.2784
51 1 9.4880 77.7502 75.4522
52 1 7.7718 58.7696 45.9006
53 1 45.7948 83.6157 31.2726
54 1 88.9475 45.5810 34.2665
55 1 12.3080 56.4227 34.7721
56 1 64.7023 51.4436 69.7582
57 1 63.8110 47.7574 55.3665
58 1 93.0782 18.3439 34.7106
59 1 66.6415 32.1847 15.3748
60 1 2.3766 36.9446 92.6633
61 1 72.7501 98.9743 36.7633
62 1 27.3606 79.3520 13.2922
63 1 37.3144 48.5117 96.4318
64 1 60.7640 24.3862 81.2704
65 1 73.1494 17.7906 19.0829
66 1 92.6674 15.9298 23.0163
67 1 40.8537 8.3083 69.3651
68 1 64.4589 1.4003 59.9665
69 1 63.1602 43.6092 32.8785
70 1 97.8053 86.2808 50.0275
71 1 1.3293 25.7137 33.6256
72 1 67.2082 45.2118 95.5197
73 1 20.0860 53.6698 9.6965
74 1 20.5172 63.9673 37.7953
75 1 3.9690 86.7629 2.5492
76 1 0.7474 25.7095 87.3301
77 1 14.1882 66.0559 12.5264
78 1 57.2160 65.7417 50.8139
79 1 10.6827 76.1672 26.2975
80 1 35.7280 47.1507 48.9688
81 1 92.5163 61.4734 48.0184
82 1 36.9731 2.4662 95.6463
83 1 77.7552 80.6603 69.6772
84 1 42.1874 15.1380 7.0188
85 1 18.0127 3.4334 79.4002
86 1 91.0515 1.9586 9.3272
87 1 27.5697 76.5460 62.7403
88 1 89.6208 8.6689 81.5446
89 1 98.9702 91.0711 7.3130
90 1 74.6233 60.1342 81.7659
91 1 1.5323 98.9530 72.4190
92 1 54.5982 65.4836 96.8140
93 1 85.8312 82.9769 81.0829
94 1 29.1886 93.3945 44.2405
95 1 81.4153 84.1212 0.6777
96 1 17.9466 16.9486 65.7714
97 1 48.9093 94.9723 68.5319
98 1 4.6646 73.0640 4.7811
99 1 73.7113 97.6023 84.1321
100 1 30.9427 63.6057 40.8769
ITEM: TIMESTEP
4004
ITEM: NUMBER OF ATOMS
59616
ITEM: BOX BOUNDS pp pp pp
0.0 100
0.0 100
0.0 100
ITEM: ATOMS id type x y z
1 1 98.8750 61.8261 5.7285
2 1 39.4481 36.6327 88.8707
3 1 25.2162 24.8598 95.8590
4 1 53.1992 57.5433 86.7407
5 1 19.4632 79.9783 80.5643
6 1 9.0514 65.1768 18.6041
7 1 13.1901 49.0368 7.2009
8 1 31.9482 94.4858 11.5177
9 1 27.4171 38.9327 30.3808
10 1 27.5177 26.9779 0.7380
11 1 77.0925 48.0585 60.5794
12 1 70.2903 92.3757 57.6131
13 1 3.9924 31.1182 89.1594
14 1 77.0777 16.9399 0.0526
15 1 5.4919 73.2878 75.5702
16 1 67.5218 1.1404 58.4227
17 1 15.4151 16.3773 39.3269
18 1 15.4225 53.6829 4.0202
19 1 14.1979 36.0699 96.7254
20 1 0.2773 80.3598 80.1961
21 1 2.2637 94.8194 90.9495
22 1 6.6412 12.2436 32.8557
23 1 80.4397 87.5852 78.6006
24 1 43.1644 34.2974 64.0847
25 1 25.0219 88.7449 43.3834
26 1 0.0466 20.8208 6.4928
27 1 12.5092 37.1365 92.3147
28 1 84.0553 67.1100 3.8323
29 1 33.2140 39.1341 80.1346
30 1 81.5481 46.6449 98.4405
31 1 58.2143 76.2912 53.1873
32 1 88.2812 48.8731 11.7534
33 1 34.4640 12.1245 79.8791
34 1 70.3241 88.7300 7.2499
35 1 15.2943 90.5154 47.1637
36 1 4.7008 20.9508 90.7820
37 1 51.0125 99.5832 12.1606
38 1 35.6771 72.8707 73.6638
39 1 56.2484 36.4127 20.4024
40 1 73.5430 41.9634 57.1472
41 1 48.3795 9.4347 52.0148
42 1 86.4076 68.5622 4.5233
43 1 96.1391 2.3276 31.2339
44 1 39.9821 11.8876 2.0002
45 1 65.9718 20.4124 44.8027
46 1 35.0792 58.7373 61.9803
47 1 23.4081 5.4099 31.7018
48 1 86.7790 72.0314 77.0630
49 1 19.8443 18.5794 51.7536
50 1 88.8995 66.4470 28.4997
51 1 37.6552 93.8209 31.5290
52 1 8.7284 27.4783 44.2335
53 1 59.6998 15.1157 75.9716
54 1 59.0651 29.0660 67.4129
55 1 8.2609 24.7341 73.3057
56 1 89.7867 29.3558 86.8775
57 1 76.8468 25.2725 36.0007
58 1 35.2893 68.7728 26.4323
59 1 10.4214 34.2411 5.4285
60 1 83.2706 37.5586 54.8304
61 1 76.9608 2.1217 57.3643
62 1 18.4349 18.4640 14.2440
63 1 59.5857 14.7122 59.2936
64 1 45.3232 84.2878 51.0595
65 1 16.6666 23.4316 36.6265
66 1 12.3741 9.8722 61.2556
67 1 89.7206 0.1411 14.8819
68 1 41.8977 44.5883 41.9129
69 1 99.7133 89.5826 73.7584
70 1 96.2374 35.5457 93.8180
71 1 42.6070 43.9964 38.5873
72 1 1.8770 88.8238 89.2358
73 1 58.5748 90.2083 99.1320
74 1 87.5641 53.5002 91.4238
75 1 82.2013 56.0608 55.7257
76 1 92.4864 37.1455 59.8773
77 1 90.2354 79.4869 51.0529
78 1 92.3112 82.6831 85.0034
79 1 38.9576 77.4537 96.5545
80 1 85.1476 8.7662 71.3271
81 1 44.2734 87.1408 93.9326
82 1 83.0204 18.6080 70.3426
83 1 98.0258 74.4986 45.2906
84 1 51.3731 16.0687 46.3794
85 1 26.4085 96.8633 30.1913
86 1 9.2736 44.6973 84.2807
87 1 23.4683 89.1890 50.6990
88 1 33.8679 74.8055 92.4771
89 1 66.2861 62.4639 44.1478
90 1 66.2803 57.0785 63.7752
91 1 83.3877 92.4414 78.7328
92 1 46.0180 58.3726 77.1983
93 1 4.1477 36.6202 14.3176
94 1 3.1064 12.7717 61.9947
95 1 29.9829 39.9514 45.7827
96 1 35.3770 7.3749 49.3208
97 1 43.5678 15.0535 99.2861
98 1 84.6486 47.8560 25.0233
99 1 4.9462 73.7621 51.2129
100 1 66.7701 68.5225 62.8557
ITEM: TIMESTEP
5005
ITEM: NUMBER OF ATOMS
59616
ITEM: BOX BOUNDS pp pp pp
0.0 100
0.0 100
0.0 100
ITEM: ATOMS id type x y z
1 1 0.6301 25.7667 6.3496
2 1 51.5696 27.8471 3.9918
3 1 76.2913 27.9425 97.6736
4 1 3.9015 53.2311 28.5644
5 1 32.6055 78.7916 91.5064
6 1 16.1510 46.2510 3.4500
7 1 9.6370 86.9596 73.4392
8 1 6.0336 4.9205 62.8383
9 1 14.3060 98.9712 41.9087
10 1 59.8737 50.0624 17.4418
11 1 80.4410 83.3356 62.0188
12 1 15.1873 1.6274 25.6318
13 1 80.8807 36.9856 8.3867
14 1 0.4727 79.5016 80.3846
15 1 49.9995 65.4461 46.5493
16 1 98.3876 99.0104 22.7524
17 1 10.7306 72.1486 98.3336
18 1 55.5069 41.2329 87.7696
19 1 65.1642 15.3986 84.6103
20 1 84.5843 33.3702 24.3972
21 1 16.2752 55.1480 80.8872
22 1 51.8313 40.4198 22.2098
23 1 7.7387 31.0849 51.0033
24 1 86.2980 30.3824 47.1124
25 1 78.7467 89.8817 31.2719
26 1 56.2839 44.4894 37.6915
27 1 80.6589 44.3632 95.3167
28 1 92.2658 37.8329 50.6558
29 1 66.1742 58.1294 52.4065
30 1 98.4802 41.8707 87.4626
31 1 57.6694 70.2947 15.0039
32 1 27.6899 37.1349 32.5470
33 1 13.6689 5.5105 54.8263
34 1 28.7503 49.1356 78.0296
35 1 79.3208 22.0415 44.7593
36 1 58.5877 12.5720 98.3613
37 1 95.5883 9.5097 26.3377
38 1 36.4662 44.3015 8.1345
39 1 87.1682 66.9182 55.6765
40 1 6.2125 83.1077 5.1998
41 1 71.3986 25.2051 80.1261
42 1 79.5182 96.5567 91.1613
43 1 45.3616 76.5226 55.8114
44 1 13.9158 86.8322 62.6594
45 1 69.3638 10.0591 1.0655
46 1 4.1798 14.1401 56.4471
47 1 2.0494 61.0354 82.7326
48 1 25.0510 59.3408 73.0034
49 1 21.0470 96.9069 21.6229
50 1 25.0963 34.8532 92.5675
51 1 93.1954 28.4434 55.3022
52 1 91.6800 68.2351 4.0734
53 1 87.5224 46.2597 87.0291
54 1 45.4494 10.9050 37.5542
55 1 87.5442 84.4779 55.5394
56 1 84.2160 65.1196 67.9547
57 1 86.4091 0.9254 14.8817
58 1 42.1405 17.4799 47.7311
59 1 5.5616 82.7440 10.7745
60 1 76.4007 47.3087 49.1962
61 1 62.5779 47.3816 31.7551
62 1 69.7557 97.6921 26.5312
63 1 4.3626 71.2000 87.9918
64 1 77.5289 86.0485 23.0078
65 1 14.2681 21.6898 35.7371
66 1 49.2171 50.7477 75.6430
67 1 94.1819 83.5977 39.3660
68 1 19.6303 60.6015 10.7116
69 1 96.8536 85.5753 48.2156
70 1 61.5424 46.5265 25.3780
71 1 62.6863 65.3376 79.6846
72 1 22.2372 69.7514 69.5846
73 1 60.6519 62.0933 91.4237
74 1 33.6939 20.1044 47.6032
75 1 25.4546 11.1322 42.3591
76 1 65.2230 59.8508 44.9758
77 1 48.0345 0.7988 86.5373
78 1 9.6519 41.6405 2.6886
79 1 12.7178 33.8222 54.3550
80 1 59.5135 83.1412 71.2460
81 1 37.4893 10.5974 46.4302
82 1 23.1502 98.2575 12.5430
83 1 8.0263 72.0752 20.3733
84 1 11.7482 93.4595 99.3624
85 1 75.3178 95.9559 71.5107
86 1 84.4755 25.6641 61.4874
87 1 12.1236 85.7521 9.7566
88 1 53.6336 10.1854 38.0548
89 1 12.2588 87.2474 54.1254
90 1 26.6389 6.6091 11.7979
91 1 57.6212 12.8405 93.4165
92 1 55.2792 7.4775 25.0261
93 1 98.2218 96.7451 14.3462
94 1 77.1798 96.3266 50.8637
95 1 31.5168 37.2663 93.0454
96 1 32.8651 45.0374 47.1677
97 1 9.5589 6.6500 31.1925
98 1 78.0109 68.4883 12.3894
99 1 85.5684 2.3565 2.3307
100 1 0.8842 89.3504 22.5091
ITEM: TIMESTEP
6006
ITEM: NUMBER OF ATOMS
59616
ITEM: BOX BOUNDS pp pp pp
0.0 100
0.0 100
0.0 100
ITEM: ATOMS id type x y z
1 1 6.2749 25.8533 29.6922
2 1 29.2555 29.8186 28.2043
3 1 95.6489 84.5510 98.3425
4 1 22.1538 62.0346 97.6047
5 1 52.0275 41.6137 73.0904
6 1 69.6602 94.7611 54.0644
7 1 20.4197 23.4819 93.4533
8 1 59.4450 85.5332 92.0229
9 1 78.4044 26.1785 48.5049
10 1 66.3689 27.8735 64.4387
11 1 81.4093 43.3097 80.1326
12 1 36.2629 34.1639 80.7873
13 1 93.8676 82.1788 55.2104
14 1 26.6028 29.9234 68.1950
15 1 51.3311 96.6627 67.3392
16 1 67.9885 7.8429 69.5931
17 1 15.7808 78.4479 23.2827
18 1 36.5196 0.2158 8.7542
19 1 42.7850 27.3432 2.1114
20 1 93.8671 39.0695 69.3169
21 1 81.8846 73.2849 5.6952
22 1 87.5006 27.4507 85.9111
23 1 18.1415 96.0587 20.2006
24 1 44.5391 56.9671 85.9130
25 1 34.8653 50.0530 84.7651
26 1 78.2666 37.8538 93.6549
27 1 63.8869 3.2441 81.9944
28 1 24.4278 20.9390 12.7673
29 1 11.3331 19.3006 25.9273
30 1 29.6617 78.8909 33.4819
31 1 53.8980 99.6215 45.6199
32 1 69.4101 69.5156 55.6065
33 1 89.9913 74.7368 71.6075
34 1 10.4245 76.6796 34.7870
35 1 49.6602 74.4645 31.2250
36 1 44.2748 84.1798 85.4990
37 1 64.1167 24.2077 71.9415
38 1 65.6080 85.1780 41.8667
39 1 28.5999 27.4645 33.6160
40 1 29.7802 2.2309 92.8522
41 1 72.9369 23.7267 31.9096
42 1 27.5317 97.2090 86.5674
43 1 52.6132 14.5392 85.1054
44 1 24.9980 1.8270 36.5390
45 1 61.9772 75.9564 16.3808
46 1 63.5425 68.1022 14.4514
47 1 75.0189 72.9220 21.2114
48 1 65.9547 67.2348 81.0400
49 1 76.5303 58.3846 83.2049
50 1 76.7772 36.9964 10.5481
51 1 28.5059 67.6090 80.0108
52 1 20.4309 1.7250 36.0971
53 1 49.6599 64.2218 47.6358
54 1 16.2064 54.4285 35.3222
55 1 49.8264 92.0964 53.3975
56 1 30.8524 24.3613 94.4298
57 1 14.9480 67.6343 9.1384
58 1 44.9846 50.2308 66.4681
59 1 11.9412 9.2781 14.4224
60 1 88.2639 5.8711 10.8038
61 1 31.9188 73.1665 52.6840
62 1 86.5264 66.0898 27.9223
63 1 88.1378 56.9329 61.6038
64 1 38.6814 50.6588 77.9179
65 1 80.4036 69.1751 68.4772
66 1 13.9057 91.0993 78.5915
67 1 61.1036 29.8082 36.2822
68 1 77.8695 25.8266 86.3744
69 1 37.4387 11.6455 53.9804
70 1 91.0910 65.9546 89.6235
71 1 71.9682 99.6506 91.6726
72 1 64.6686 40.0937 92.6394
73 1 42.9723 40.8652 14.2954
74 1 20.6178 0.0142 61.0306
75 1 35.6800 59.1370 79.4606
76 1 63.2816 73.6540 54.4745
77 1 43.5066 22.7365 49.0632
78 1 0.1537 38.9517 12.0066
79 1 84.2169 64.7478 48.5350
80 1 86.8080 65.3089 70.6899
81 1 54.0503 76.8040 49.2143
82 1 26.9435 95.0689 14.2662
83 1 51.8222 31.6062 38.8373
84 1 24.4569 45.1663 52.1440
85 1 86.4575 31.7377 62.9532
86 1 15.7840 67.1493 38.2661
87 1 64.7684 4.3316 81.3548
88 1 23.0556 7.7101 45.9286
89 1 69.0637 90.5637 56.2104
90 1 39.0425 64.2088 36.3452
91 1 12.7526 78.9324 41.2227
92 1 95.9045 18.4642 11.4827
93 1 81.8668 82.7304 88.1088
94 1 91.0881 74.3967 80.3569
95 1 27.8511 5.0218 2.1015
96 1 34.7774 42.8654 52.9489
97 1 34.6512 99.6597 96.5661
98 1 80.8915 84.5964 24.1971
99 1 35.1714 52.6768 38.9145
100 1 6.7303 64.8843 73.6877
ITEM: TIMESTEP
7007
ITEM: NUMBER OF ATOMS
59616
ITEM: BOX BOUNDS pp pp pp
0.0 100
0.0 100
0.0 100
ITEM: ATOMS id type x y z
1 1 87.7173 25.6246 90.7127
2 1 73.2592 55.5364 38.3819
3 1 54.0342 76.9009 33.3743
4 1 18.4219 59.3853 18.2880
5 1 7.9495 32.4325 77.4307
6 1 64.8194 9.8311 2.3560
7 1 27.4538 55.7998 21.0657
8 1 70.6276 10.6197 46.2032
9 1 36.5972 13.9531 12.7310
10 1 81.5935 1.3092 43.2321
11 1 98.2153 0.0187 50.3393
12 1 20.2378 30.8622 91.4433
13 1 69.3861 47.5056 97.9789
14 1 64.1742 92.5537 82.2456
15 1 59.2431 96.1765 14.2331
16 1 66.8102 46.5116 6.2759
17 1 4.3162 95.0782 95.9444
18 1 63.4911 22.9599 21.5752
19 1 70.8358 60.4810 73.8824
20 1 86.0605 29.4951 66.8611
21 1 11.6283 28.7195 77.0693
22 1 61.1656 26.8501 96.1717
23 1 80.2651 79.6456 65.6957
24 1 41.8632 94.5108 73.3649
25 1 90.0482 53.7255 10.2012
26 1 80.9804 67.5096 54.0100
27 1 31.4317 11.7104 26.4301
28 1 94.5386 15.8172 57.1942
29 1 83.4497 61.8603 49.2013
30 1 25.2295 13.3423 97.3705
31 1 63.4078 31.1477 53.8515
32 1 98.1709 9.5972 67.1275
33 1 69.3514 39.7997 31.7425
34 1 25.3024 40.1987 1.1867
35 1 10.4996 35.9041 58.9933
36 1 66.4444 66.0646 0.7945
37 1 15.2316 87.5921 95.8714
38 1 55.8187 74.4748 30.4663
39 1 77.6502 55.1763 4.9736
40 1 20.3726 58.3415 70.0551
41 1 41.5222 79.8878 2.5751
42 1 94.4133 44.5815 54.6923
43 1 31.4128 48.7765 62.4188
44 1 66.6969 44.5617 87.4043
45 1 57.8924 88.4363 60.5934
46 1 6.2906 33.8456 61.3528
47 1 86.8198 45.0031 26.0277
48 1 47.1070 5.2475 50.4422
49 1 20.6786 11.6403 56.0518
50 1 31.9166 63.3668 42.2107
51 1 58.7458 92.3373 64.1553
52 1 49.3867 55.9097 60.3762
53 1 71.0566 49.3001 70.0688
54 1 73.4680 34.6981 46.2810
55 1 90.8573 49.3146 53.6599
56 1 84.0304 29.0285 60.6597
57 1 19.8309 63.8665 4.9468
58 1 29.7729 10.7442 4.5501
59 1 92.5266 2.7005 72.2263
60 1 17.6934 63.5157 37.7382
61 1 73.7258 83.0208 35.3939
62 1 59.3960 33.0107 83.4774
63 1 46.6518 84.0999 0.9721
64 1 5.1554 3.6045 71.9023
65 1 1.4094 46.3911 38.9877
66 1 5.2566 84.2867 10.5826
67 1 61.6689 78.8095 86.7130
68 1 73.6729 23.8122 6.0434
69 1 12.2121 67.0251 31.8902
70 1 94.1230 23.5711 70.1728
71 1 87.6316 79.7064 89.0400
72 1 22.9919 10.8912 91.5608
73 1 76.0381 26.3978 96.8220
74 1 60.5466 97.6981 19.9244
75 1 73.2479 51.0264 36.2136
76 1 62.7906 13.1820 10.6681
77 1 45.9349 67.7908 2.2862
78 1 53.0299 77.7481 82.5608
79 1 83.2256 16.1834 93.3878
80 1 26.4760 7.6101 43.3262
81 1 26.6227 59.2785 9.5292
82 1 23.8611 99.6811 10.9658
83 1 32.4241 61.5876 95.4352
84 1 11.9341 47.8739 73.6329
85 1 71.1872 63.8429 98.0310
86 1 45.6222 92.8724 8.8128
87 1 0.8429 48.5550 67.9959
88 1 96.2173 85.0291 88.2882
89 1 78.5479 9.7729 17.6299
90 1 48.0271 56.7173 26.0959
91 1 23.4365 99.9102 4.0072
92 1 9.0843 70.9588 76.0214
93 1 53.0694 53.7074 94.5987
94 1 60.3153 63.2126 49.6743
95 1 58.6625 81.3924 79.5266
96 1 77.2434 86.9025 0.1353
97 1 59.9345 98.7216 39.5585
98 1 38.9602 0.3693 93.8576
99 1 4.4696 53.4585 61.0106
100 1 56.0670 29.1489 37.4740
ITEM: TIMESTEP
8008
ITEM: NUMBER OF ATOMS
59616
ITEM: BOX BOUNDS pp pp pp
0.0 100
0.0 100
0.0 100
ITEM: ATOMS id type x y z
1 1 4.4389 92.0497 28.3434
2 1 32.8588 89.0522 86.2428
3 1 13.1487 48.4063 77.2622
4 1 23.5397 95.4085 88.6422
5 1 25.3506 77.4086 85.3241
6 1 1.3987 20.1632 31.9580
7 1 93.5335 40.5348 58.6008
8 1 15.3602 57.2068 77.6561
9 1 53.1643 87.6117 92.4309
10 1 37.1373 14.0767 30.5573
11 1 44.9042 67.0455 82.7982
12 1 10.9021 43.5721 99.1331
13 1 39.5120 11.8672 73.7612
14 1 20.8207 36.5152 80.2975
15 1 1.6296 65.1166 81.9420
16 1 80.0895 74.6935 85.6515
17 1 65.9836 66.1486 50.8877
18 1 85.3829 73.1370 31.6595
19 1 31.1267 63.4063 87.4440
20 1 45.7352 80.2756 18.0160
21 1 34.1044 2.3939 58.8786
22 1 3.1992 46.7140 81.7169
23 1 18.2484 54.4016 99.7678
24 1 99.0737 86.9346 20.6469
25 1 33.4903 78.4277 68.0835
26 1 40.8416 14.8207 57.2081
27 1 67.5911 53.3389 18.6003
28 1 95.6674 2.9712 72.3947
29 1 93.5697 57.2965 38.0630
30 1 64.8126 28.1308 29.9398
31 1 20.4048 29.4435 31.3599
32 1 81.8093 29.1019 15.4443
33 1 67.1478 33.8624 72.8404
34 1 28.4964 13.0398 94.5154
35 1 56.1834 29.2487 62.6030
36 1 9.5996 14.8018 47.2929
37 1 11.0548 25.2963 52.7807
38 1 27.8326 79.1127 51.5204
39 1 75.4880 64.0769 63.9458
40 1 86.5450 47.5067 34.5135
41 1 92.3442 14.9717 19.4845
42 1 99.3488 12.9588 14.7773
43 1 52.6376 7.6829 82.7994
44 1 8.4542 46.7040 51.1353
45 1 46.2257 85.5709 79.2736
46 1 61.0148 20.7789 61.4495
47 1 2.2871 82.3180 42.7052
48 1 13.3609 0.4144 62.7731
49 1 81.1402 37.0149 11.6541
50 1 18.8400 62.0062 46.0426
51 1 53.3775 16.6470 4.6335
52 1 53.3762 70.6814 79.1695
53 1 64.2428 34.1409 14.1953
54 1 35.3044 94.6985 98.2344
55 1 49.8339 40.1815 28.0564
56 1 37.8640 28.1416 86.8922
57 1 83.2605 68.0385 43.3497
58 1 38.6127 78.0453 13.8380
59 1 76.6678 4.4540 5.8452
60 1 88.2654 56.8679 4.8603
61 1 47.2919 73.5930 12.7834
62 1 42.9359 83.4161 55.0793
63 1 23.6704 41.1919 20.4576
64 1 57.7758 66.2340 84.4337
65 1 19.5319 53.9775 96.5797
66 1 99.0810 26.0105 99.4576
67 1 58.3897 5.3650 66.0341
68 1 69.3092 5.0853 11.8239
69 1 97.2827 47.4373 20.7461
70 1 20.9620 72.2751 62.1746
71 1 66.3287 60.5345 95.5149
72 1 14.6124 92.5488 6.5770
73 1 91.7992 53.7215 3.8390
74 1 3.4449 49.5486 90.3987
75 1 11.4993 9.5320 88.5612
76 1 24.5441 41.5545 51.9559
77 1 20.2128 4.4933 86.8574
78 1 51.7302 19.2021 13.3265
79 1 65.3520 73.7845 72.8278
80 1 17.0676 46.2692 99.0260
81 1 34.3626 34.5097 46.5929
82 1 57.3213 88.0343 54.3443
83 1 44.3007 10.2881 45.7752
84 1 24.9952 58.1710 37.2311
85 1 31.7271 62.5884 35.8309
86 1 71.0887 70.6253 66.3189
87 1 36.8543 72.6945 51.6401
88 1 87.1372 57.7163 60.0523
89 1 69.2661 86.1377 36.1114
90 1 26.3467 68.5374 94.0103
91 1 40.0322 52.2914 74.8397
92 1 99.4780 16.8688 46.1892
93 1 69.3933 4.0092 62.9239
94 1 89.6411 28.4331 19.9457
95 1 26.8981 27.4045 95.8202
96 1 91.7211 38.6708 50.5802
97 1 58.6681 52.0424 95.5412
98 1 45.5668 0.2881 29.5015
99 1 75.5195 20.7742 14.4255
100 1 99.3042 4.4975 74.5229
ITEM: TIMESTEP
9009
ITEM: NUMBER OF ATOMS
59616
ITEM: BOX BOUNDS pp pp pp
0.0 100
0.0 100
0.0 100
ITEM: ATOMS id type x y z
1 1 82.8907 18.4455 75.9393
2 1 11.8517 5.1938 82.6148
3 1 53.7265 89.6631 68.3037
4 1 30.3133 72.2541 34.5892
5 1 56.8809 8.9872 11.4536
6 1 18.6112 13.5288 4.5931
7 1 64.0974 94.6638 80.3642
8 1 22.5484 3.1279 95.8105
9 1 91.2795 39.2336 7.1201
10 1 81.1480 74.1080 22.0642
11 1 24.6281 67.5204 98.7454
12 1 31.8984 20.0032 36.0507
13 1 36.7139 50.3856 74.0241
14 1 0.8138 81.2416 44.2664
15 1 89.4250 87.0408 33.6512
16 1 74.6047 90.0784 41.6510
17 1 40.3832 90.1229 50.8808
18 1 22.4387 68.6943 46.6095
19 1 15.1471 57.2635 13.2641
20 1 83.1206 74.7224 56.9863
21 1 20.5642 54.0235 99.9157
22 1 60.0978 92.2859 99.7799
23 1 57.0407 40.4170 89.0196
24 1 63.7055 85.0765 87.6667
25 1 21.1492 45.0506 54.2952
26 1 15.3749 48.1232 0.2552
27 1 81.7960 86.5901 47.7719
28 1 45.2989 64.9106 41.7494
29 1 14.3623 89.7437 79.3635
30 1 95.4649 34.9179 31.5545
31 1 83.1536 95.9514 69.6197
32 1 55.6528 70.9735 21.0698
33 1 9.2174 14.8673 6.7146
34 1 44.1181 48.0785 71.7808
35 1 68.2322 30.4531 81.5470
36 1 43.3361 53.0332 37.0027
37 1 29.5130 51.4236 38.2670
38 1 60.7960 57.1848 61.7368
39 1 29.0996 88.2247 95.2899
40 1 30.0030 48.6782 99.4641
41 1 42.6648 0.8224 4.4568
42 1 83.0636 7.4891 38.8945
43 1 92.6638 41.2746 27.2427
44 1 49.3453 24.8220 62.5605
45 1 58.8748 88.2054 42.2214
46 1 99.8358 73.4445 21.8626
47 1 25.0161 24.0224 13.7458
48 1 36.2440 3.9800 72.1190
49 1 99.7576 35.5794 97.1317
50 1 89.9711 40.3352 68.9998
51 1 75.1954 19.5712 60.8527
52 1 3.9505 89.0852 6.6767
53 1 92.8119 93.1507 99.3435
54 1 95.6604 22.7118 41.2594
55 1 77.9053 65.0480 47.1283
56 1 66.1258 3.0723 26.8638
57 1 33.4011 90.8101 28.6306
58 1 14.2701 5.1501 10.9681
59 1 72.5771 69.0803 73.8487
60 1 56.1398 99.4724 30.0107
61 1 47.3539 46.1818 2.5011
62 1 68.1484 67.6647 67.8249
63 1 2.9652 38.1623 87.5984
64 1 19.4489 71.4517 82.3333
65 1 31.7916 43.5868 4.6946
66 1 22.9406 94.9394 30.2576
67 1 38.7962 73.9296 93.7598
68 1 75.5611 17.9630 13.2584
69 1 97.3345 62.1281 48.9822
70 1 27.3815 74.2002 53.4145
71 1 69.7270 73.4749 39.8729
72 1 90.1759 14.4637 72.4206
73 1 28.6558 48.7231 41.0123
74 1 5.2782 41.3222 51.9934
75 1 53.8896 72.2539 50.0958
76 1 67.8492 30.3803 22.5284
77 1 68.5633 90.8107 28.7792
78 1 28.5524 61.2688 97.5567
79 1 77.9961 38.4191 94.9146
80 1 8.1153 51.1888 67.1984
81 1 49.2642 10.5564 38.5119
82 1 50.7603 47.2066 98.5626
83 1 94.0676 8.9572 81.9800
84 1 49.1052 93.1919 45.3289
85 1 1.8155 97.6659 55.5585
86 1 20.6137 24.5410 61.5376
87 1 81.9707 26.5802 19.3992
88 1 86.5412 83.0659 6.1849
89 1 56.8227 82.4111 1.2340
90 1 99.3245 55.2794 31.3574
91 1 29.9750 5.5284 81.2456
92 1 97.5879 30.7969 23.1077
93 1 76.0794 40.3632 2.8168
94 1 40.3212 60.0276 43.6808
95 1 2.0162 6.5070 21.6625
96 1 55.0425 16.7977 57.6199
97 1 16.7615 24.1130 66.4626
98 1 95.0188 60.1750 37.8869
99 1 64.6012 86.6954 65.3211
100 1 30.8403 70.7096 44.5457
ITEM: TIMESTEP
10010
ITEM: NUMBER OF ATOMS
59616
ITEM: BOX BOUNDS pp pp pp
0.0 100
0.0 100
0.0 100
ITEM: ATOMS id type x y z
1 1 91.8596 98.3534 42.4962