ITEM: TIMESTEP
0
ITEM: NUMBER OF ATOMS
75165
ITEM: BOX BOUNDS pp pp pp
0.0 100
0.0 100
0.0 100
ITEM: ATOMS id type x y z
1 1 14.4014 97.7259 5.5859
2 1 38.9805 45.7421 18.9077
3 1 74.0914 77.8180 54.7408
4 1 64.9184 18.8961 7.9966
5 1 74.9192 13.7031 50.3870
6 1 95.0449 7.8959 4.1493
7 1 5.0812 85.5585 82.3996
8 1 80.8601 32.1151 48.0193
9 1 44.6984 95.7794 88.2921
10 1 35.7709 96.2795 93.0433
11 1 96.2256 54.7918 25.9663
12 1 4.1548 0.6416 95.7715
13 1 49.1553 86.6532 47.1697
14 1 75.1410 57.7448 32.9163
15 1 65.5830 69.2769 25.1829
16 1 83.2079 34.4948 18.0431
17 1 75.5557 71.0132 19.2763
18 1 77.3914 12.1189 64.0995
19 1 53.8116 87.3344 20.3831
20 1 37.3622 89.3828 27.7619
21 1 60.2891 37.3372 62.1804
22 1 79.0826 26.9329 13.5395
23 1 86.5567 67.7592 80.0064
24 1 77.2876 49.1398 51.5574
25 1 81.0832 38.4489 96.3348
26 1 79.8312 34.7471 16.5856
27 1 67.7611 8.2645 97.0796
28 1 8.8938 82.8049 88.5655
29 1 87.1460 69.6808 69.7824
30 1 5.9027 66.2148 48.5722
31 1 35.6021 23.6009 73.8345
32 1 54.3504 95.1735 30.9354
33 1 38.5734 21.4471 48.0741
34 1 82.5851 25.7412 70.9198
35 1 37.3498 83.9168 86.7177
36 1 28.2113 22.9678 98.3498
37 1 22.0248 64.9117 28.6798
38 1 88.8296 88.6051 48.1829
39 1 15.5880 45.6799 72.1184
40 1 5.6629 56.6055 0.3955
41 1 13.4328 49.6584 48.3280
42 1 70.7242 71.4861 62.3303
43 1 7.9842 16.0574 65.1267
44 1 31.0651 71.8112 80.0172
45 1 76.5791 55.8820 25.2578
46 1 55.5861 49.6612 30.0173
47 1 74.5362 61.5390 29.8981
48 1 33.2576 17.0280 15.6368
49 1 40.8439 9.3358 93.9550
50 1 25.4989 52.3713 29.7828
51 1 51.7596 60.0915 17.2882
52 1 22.6826 50.1019 82.1057
53 1 12.4930 63.4680 26.1963
54 1 61.1061 14.2863 93.3641
55 1 31.2937 84.9309 34.1955
56 1 39.1457 11.9922 43.0449
57 1 3.5637 48.1065 45.5274
58 1 89.4904 53.1077 61.4482
59 1 63.8232 50.7467 71.4739
60 1 58.0715 74.3464 4.5305
61 1 36.5035 36.8982 43.4888
62 1 75.3534 54.0802 95.7598
63 1 68.7207 17.1659 45.5071
64 1 26.6679 6.7599 51.0652
65 1 80.4479 30.1225 52.2417
66 1 95.9963 93.1697 56.7497
67 1 94.6747 63.1683 11.1417
68 1 70.8101 10.4402 18.2452
69 1 38.1655 26.8380 79.1393
70 1 1.0752 3.0665 35.8826
71 1 36.8081 50.9418 41.1608
72 1 96.2127 39.1899 48.8589
73 1 60.2673 50.9971 27.6393
74 1 8.1196 0.4759 72.9064
75 1 92.3674 43.1062 54.5333
76 1 1.7131 31.6890 2.2571
77 1 21.2392 40.6172 21.5377
78 1 0.4118 0.4417 73.9427
79 1 98.4413 52.3121 54.4587
80 1 9.9029 99.8701 57.1918
81 1 31.6050 60.9418 10.5419
82 1 37.2925 43.5788 50.7590
83 1 50.6363 22.9422 41.8197
84 1 36.1007 70.4532 99.2216
85 1 48.6091 30.2042 98.3939
86 1 64.3419 33.5549 68.7352
87 1 47.2931 99.5978 2.0459
88 1 22.2380 71.3629 95.9685
89 1 0.5871 59.0884 90.4215
90 1 88.2820 22.7771 42.8237
91 1 82.7496 95.0654 5.8492
92 1 55.1423 98.3010 61.1924
93 1 46.8298 28.2995 40.3463
94 1 63.0535 73.6546 7.2796
95 1 55.8374 17.7055 97.8725
96 1 46.3337 54.3287 43.9710
97 1 47.4667 73.2951 19.1771
98 1 3.3251 71.5806 14.7010
99 1 11.1404 78.3612 64.5654
100 1 67.1625 44.9010 20.3740
ITEM: TIMESTEP
1001
ITEM: NUMBER OF ATOMS
75165
ITEM: BOX BOUNDS pp pp pp
0.0 100
0.0 100
0.0 100
ITEM: ATOMS id type x y z
1 1 55.4437 38.2103 43.8089
2 1 90.4734 7.9875 15.8745
3 1 35.3792 42.1779 62.0047
4 1 84.0529 67.7225 81.7197
5 1 90.3769 56.0202 62.3475
6 1 32.1783 9.7742 19.8822
7 1 12.6665 46.7633 1.6017
8 1 36.6241 53.1077 19.0101
9 1 85.6884 7.0109 44.6877
10 1 66.8712 63.2843 77.2966
11 1 29.5374 43.0665 94.3712
12 1 57.0632 37.3189 24.2013
13 1 96.8290 26.3692 2.0505
14 1 83.1355 66.9963 89.5672
15 1 87.1890 57.1070 91.9897
16 1 12.8642 28.9939 31.0142
17 1 73.3239 15.9077 26.6363
18 1 36.9705 65.1839 19.2015
19 1 19.5738 64.2967 66.2670
20 1 19.7981 27.7440 19.7155
21 1 11.8670 73.8606 78.6259
22 1 52.3578 9.6783 79.0225
23 1 78.6599 56.7059 23.6540
24 1 38.3278 43.9954 48.0845
25 1 82.5745 63.1764 48.4228
26 1 82.8140 95.5045 3.2128
27 1 22.2363 50.3985 19.3947
28 1 79.2505 80.1909 58.9712
29 1 75.7051 49.0283 20.8137
30 1 66.0145 55.5832 92.2529
31 1 58.9533 13.9167 15.7624
32 1 14.2243 57.4938 75.2479
33 1 94.6803 81.0677 47.3981
34 1 52.6068 17.5390 34.1196
35 1 71.2472 59.5732 74.1646
36 1 91.8879 8.4032 3.3814
37 1 58.5786 79.4575 86.2400
38 1 55.3832 66.0416 5.7079
39 1 51.5481 34.2678 57.4408
40 1 11.8209 21.5340 70.0314
41 1 93.2789 77.2578 97.1602
42 1 36.5375 38.6419 40.5817
43 1 62.3476 9.4596 79.0937
44 1 19.7395 42.3991 68.5342
45 1 38.9995 77.1144 86.2389
46 1 85.9494 34.8667 54.2019
47 1 23.9469 27.8584 90.9338
48 1 12.3481 74.0715 24.8876
49 1 81.1217 65.5364 21.8772
50 1 19.6245 90.5948 76.0454
51 1 83.1209 7.4637 74.9542
52 1 30.6888 92.5448 8.7802
53 1 64.6560 71.9711 94.9000
54 1 26.4782 92.3600 52.4341
55 1 68.6952 16.8286 69.0929
56 1 37.8606 47.1986 31.2698
57 1 29.8899 16.0973 39.9330
58 1 30.7005 80.2697 0.4839
59 1 71.4732 33.8231 81.6653
60 1 83.3433 12.3147 39.9823
61 1 73.1569 52.8387 14.6972
62 1 92.8774 2.2100 93.0014
63 1 87.9486 20.5241 51.0128
64 1 78.0890 13.3294 74.0693
65 1 3.7631 42.1742 49.9723
66 1 11.5284 1.8506 13.4472
67 1 88.9113 95.1825 8.9019
68 1 41.1670 39.6356 18.2849
69 1 37.0366 83.9691 7.5150
70 1 22.8347 26.2964 11.1742
71 1 56.5665 12.0171 96.1609
72 1 46.9150 50.1170 14.9854
73 1 5.9923 15.3981 53.7832
74 1 4.1794 74.0709 17.3907
75 1 49.7409 87.3304 77.2876
76 1 88.9668 50.8305 52.1045
77 1 53.6677 13.3493 47.4010
78 1 5.7011 78.6710 28.1034
79 1 88.0071 87.4908 70.5508
80 1 71.7146 98.7249 55.9139
81 1 98.7228 78.9905 2.7277
82 1 57.8239 17.0784 90.2974
83 1 78.3966 72.8669 19.8181
84 1 13.9559 38.5160 53.0111
85 1 23.7315 2.8998 44.5771
86 1 74.5224 92.6147 82.9181
87 1 28.0038 52.4513 29.6517
88 1 49.0668 6.4348 57.3419
89 1 21.0019 44.8598 48.6056
90 1 70.4067 28.2022 11.6988
91 1 56.1144 55.1420 24.6545
92 1 95.3916 35.4069 91.2736
93 1 93.7946 24.9250 97.7187
94 1 72.7851 33.4018 7.7492
95 1 79.4979 41.2403 32.3784
96 1 32.5987 14.3734 99.0239
97 1 10.3094 61.3399 83.8666
98 1 1.6946 69.8255 40.3186
99 1 73.9406 34.0664 11.5665
100 1 7.7002 62.3135 75.8898
ITEM: TIMESTEP
2002
ITEM: NUMBER OF ATOMS
75165
ITEM: BOX BOUNDS pp pp pp
0.0 100
0.0 100
0.0 100
ITEM: ATOMS id type x y z
1 1 21.3234 69.4309 34.4813
2 1 99.6415 10.5840 53.1162
3 1 98.0427 36.0008 18.9533
4 1 9.7711 78.8284 94.2500
5 1 33.4406 81.7697 44.0805
6 1 79.9282 92.3341 74.9471
7 1 66.3473 65.7136 17.0224
8 1 11.3312 70.7932 99.2685
9 1 89.5729 89.6558 18.6696
10 1 85.0973 7.9699 78.1798
11 1 12.0293 63.9310 29.8540
12 1 42.7851 16.8464 48.8211
13 1 90.9451 88.4752 11.1098
14 1 6.2313 87.7630 60.5684
15 1 85.5092 44.1596 16.3211
16 1 6.7385 74.6241 34.5651
17 1 54.4088 45.4099 19.7607
18 1 52.3350 76.4515 43.3838
19 1 1.4842 37.3301 13.1414
20 1 66.2676 10.2615 78.0447
21 1 46.1004 50.7390 56.4763
22 1 71.1860 27.0003 72.7839
23 1 6.4656 70.4860 14.1269
24 1 98.4799 16.6675 70.4082
25 1 92.7832 87.4487 95.9266
26 1 52.4447 29.2670 71.6064
27 1 93.3759 14.3262 9.8892
28 1 59.7619 94.4200 34.4236
29 1 23.7726 91.0851 1.5832
30 1 65.5356 34.8016 44.1540
31 1 0.5134 76.8070 83.6944
32 1 77.6130 87.0064 78.3881
33 1 80.9209 71.3516 82.5363
34 1 18.9504 74.7336 41.2924
35 1 88.1231 68.6407 22.9123
36 1 69.0869 20.6719 96.1693
37 1 10.8031 94.2062 65.2674
38 1 74.6671 13.2285 17.3305
39 1 58.1339 82.1304 31.6514
40 1 22.2942 7.0803 6.5601
41 1 90.6148 54.7837 0.9074
42 1 44.1405 70.7296 14.2939
43 1 52.8896 42.3762 31.0780
44 1 85.1962 23.1888 30.5754
45 1 79.7777 59.2091 2.9754
46 1 82.2294 47.8163 45.3602
47 1 28.3684 18.5223 34.4089
48 1 94.4471 96.7085 73.9286
49 1 88.9021 48.1420 3.8711
50 1 83.3832 63.9423 1.3767
51 1 94.9029 44.3426 93.9563
52 1 63.3652 51.9756 91.2659
53 1 69.0007 30.6584 29.3374
54 1 62.8017 73.7418 75.7222
55 1 27.0513 78.3869 76.1014
56 1 60.2070 49.2483 31.8655
57 1 59.9041 7.0410 50.9027
58 1 69.4364 28.2192 77.4993
59 1 51.1599 86.0803 33.4713
60 1 8.1846 0.3274 29.5641
61 1 67.5371 20.0523 74.4862
62 1 82.0631 5.8763 30.8749
63 1 80.0766 88.8476 22.5121
64 1 9.0120 74.1352 92.7064
65 1 83.4689 64.1699 31.0960
66 1 16.0502 39.4551 69.7793
67 1 49.7149 29.7070 27.9202
68 1 2.2629 61.2309 52.5191
69 1 25.8169 24.0162 19.8951
70 1 19.9857 70.3207 38.8912
71 1 7.6508 1.1646 42.4423
72 1 66.5996 51.7999 88.3108
73 1 49.4835 19.0344 25.1562
74 1 53.6680 35.3125 18.9603
75 1 47.3484 1.9215 79.9774
76 1 38.0688 13.4052 2.3583
77 1 39.6742 98.2139 69.8298
78 1 35.6897 23.7920 75.0094
79 1 98.4882 48.6039 41.3050
80 1 13.9749 15.7231 19.4310
81 1 86.9748 54.0731 53.5917
82 1 3.6195 73.1688 32.7119
83 1 13.1335 14.4557 82.5490
84 1 48.0031 7.6981 12.9671
85 1 85.1092 46.5923 80.0566
86 1 29.6714 16.6311 76.6703
87 1 2.9940 39.8215 52.9763
88 1 97.3880 17.5173 18.3472
89 1 80.4815 92.9073 41.4427
90 1 72.9214 9.2535 35.4192
91 1 83.3874 9.5628 46.9545
92 1 88.4319 6.0150 86.5090
93 1 54.2623 40.2455 12.6128
94 1 55.5385 95.5620 83.4418
95 1 77.1374 45.6706 52.6931
96 1 92.8978 68.5737 0.7899
97 1 82.4781 99.0204 1.6822
98 1 72.6911 54.9448 42.7231
99 1 1.5366 24.4522 6.1976
100 1 40.1924 31.1636 73.1837
ITEM: TIMESTEP
3003
ITEM: NUMBER OF ATOMS
75165
ITEM: BOX BOUNDS pp pp pp
0.0 100
0.0 100
0.0 100
ITEM: ATOMS id type x y z
1 1 97.7538 29.3306 26.8016
2 1 32.8151 55.5574 0.3874
3 1 88.3662 18.9732 23.7856
4 1 68.0739 74.3306 94.3231
5 1 58.7923 18.7195 16.8321
6 1 1.2178 51.7936 90.0321
7 1 96.3959 78.1403 64.6015
8 1 49.3251 45.7081 35.1120
9 1 69.1652 74.5730 34.2616
10 1 26.0952 22.2187 39.5010
11 1 57.8858 84.5904 63.8046
12 1 57.9361 50.1776 19.8904
13 1 95.9502 49.4665 41.7116
14 1 55.0422 26.2960 91.1450
15 1 61.8258 15.1976 62.8654
16 1 58.6613 36.1026 92.8867
17 1 94.6464 76.5747 3.2991
18 1 71.7871 64.1469 78.5431
19 1 49.9664 4.9299 92.2353
20 1 88.4929 86.6616 5.5321
21 1 96.9781 1.2490 93.4557
22 1 16.7282 44.1918 10.9176
23 1 64.1499 69.2723 74.0287
24 1 81.8637 98.8496 38.4486
25 1 14.4860 73.1515 4.3101
26 1 28.8859 78.2911 18.4538
27 1 12.6454 9.7376 67.2636
28 1 94.2489 15.9989 67.0289
29 1 66.4145 15.4888 93.7293
30 1 94.9979 31.6218 9.5001
31 1 2.6659 49.9878 37.7631
32 1 75.2694 35.5376 63.0066
33 1 45.2586 35.6200 9.4212
34 1 18.5769 69.0630 74.7460
35 1 53.7946 30.9156 46.8820
36 1 21.0326 82.5994 31.5761
37 1 95.7184 79.4224 27.4437
38 1 1.4004 12.5989 59.1406
39 1 89.3173 88.2419 41.6855
40 1 85.1160 74.8784 97.1304
41 1 32.8624 29.4121 68.5540
42 1 37.1812 83.5144 84.4215
43 1 63.1291 51.0944 54.0101
44 1 21.1426 76.6590 64.6260
45 1 25.1163 56.8433 95.6140
46 1 60.2702 29.6242 32.6107
47 1 24.4851 92.2895 60.1449
48 1 54.9751 78.4586 43.5513
49 1 93.0845 79.5624 13.5586
50 1 40.4842 36.2533 63.4921
51 1 22.9280 61.9991 14.5732
52 1 85.3357 41.2734 40.0563
53 1 82.6996 63.8353 47.7818
54 1 50.5252 68.6779 21.2038
55 1 0.8148 24.9713 29.2241
56 1 48.0772 75.6965 52.9556
57 1 17.7175 84.0222 42.1681
58 1 99.7005 53.7718 50.2843
59 1 32.8364 47.0056 2.6209
60 1 54.8213 91.9612 79.5300
61 1 55.9677 59.5712 25.3038
62 1 82.6526 68.8693 29.3671
63 1 16.6776 46.7007 88.6077
64 1 50.3301 48.8243 92.6831
65 1 93.2145 36.9707 5.1333
66 1 4.6052 10.8945 82.8166
67 1 27.8039 66.9334 52.7879
68 1 42.1533 48.7503 25.0525
69 1 93.4520 96.0250 48.7279
70 1 48.8235 82.4736 96.5895
71 1 12.1102 16.9333 53.5407
72 1 5.9368 81.3398 38.1411
73 1 66.2273 20.8852 96.5494
74 1 72.1771 70.5326 62.2213
75 1 57.0715 67.9495 63.6073
76 1 68.1458 46.5100 6.5110
77 1 27.5122 87.6943 95.0679
78 1 95.0835 35.6680 63.1702
79 1 76.7493 88.0403 47.7949
80 1 29.6468 41.3533 78.7570
81 1 5.9372 22.4492 41.5643
82 1 71.6486 44.8361 77.5746
83 1 70.1469 21.0939 75.0169
84 1 68.9102 57.1628 64.6856
85 1 8.6992 6.5979 49.8027
86 1 96.0775 77.4721 33.5162
87 1 4.2522 98.2230 39.8652
88 1 49.3648 83.8996 91.0332
89 1 93.6194 2.0303 67.7744
90 1 25.1134 77.8080 62.7416
91 1 11.8793 33.4905 95.0109
92 1 46.7946 66.9525 15.5760
93 1 19.9792 81.4314 48.8890
94 1 87.6166 50.4582 85.8443
95 1 64.1296 47.2948 46.1752
96 1 36.9555 56.6286 2.6574
97 1 7.5208 31.8340 49.8075
98 1 33.3076 68.5351 56.4435
99 1 66.9551 86.7098 92.5691
100 1 70.6974 99.2387 0.3487
ITEM: TIMESTEP
4004
ITEM: NUMBER OF ATOMS
75165
ITEM: BOX BOUNDS pp pp pp
0.0 100
0.0 100
0.0 100
ITEM: ATOMS id type x y z
1 1 97.5093 81.8599 20.7339
2 1 20.3430 19.0623 69.6576
3 1 4.4352 60.8235 75.0020
4 1 24.8538 55.9205 81.7867
5 1 90.1459 70.9665 98.9921
6 1 86.9960 87.2193 19.9430
7 1 70.4632 19.7756 99.4694
8 1 76.9141 52.8066 99.9350
9 1 84.1492 95.2385 84.9509
10 1 1.8190 61.8154 98.4906
11 1 56.9120 66.0625 74.3292
12 1 52.0495 48.6672 64.2585
13 1 50.2940 77.5669 46.4174
14 1 14.9790 8.4865 94.5154
15 1 86.4886 99.0267 39.7356
16 1 21.6671 9.4156 37.4698
17 1 15.2050 55.1415 9.7375
18 1 67.6062 62.1460 23.2033
19 1 81.1612 56.2798 49.4896
20 1 59.6563 66.6477 61.7682
21 1 40.0382 87.2852 38.9925
22 1 5.8761 35.7535 64.8823
23 1 38.5802 73.8850 45.7207
24 1 94.6641 45.0236 29.2999
25 1 2.8474 67.1752 38.5856
26 1 33.9816 29.0186 0.8495
27 1 32.8837 46.6731 79.0169
28 1 81.7868 97.0076 49.0646
29 1 67.6735 33.8440 10.6382
30 1 34.8970 10.1099 93.7815
31 1 27.6944 27.8692 65.9422
32 1 62.8219 87.8053 3.8229
33 1 18.5176 62.2211 30.7595
34 1 64.0888 49.8796 95.3993
35 1 12.2733 69.3245 44.6479
36 1 21.4925 95.3634 69.4993
37 1 98.6644 1.3861 41.9771
38 1 2.7877 3.8518 2.8961
39 1 63.7415 22.4159 58.8804
40 1 30.2073 2.5821 68.3252
41 1 22.3877 38.0362 80.3076
42 1 13.7910 52.3222 14.7385
43 1 22.3385 55.1875 89.6565
44 1 75.5482 35.3053 48.8158
45 1 65.3047 69.2849 5.8171
46 1 81.7358 16.8457 14.8882
47 1 99.1604 60.0005 22.2683
48 1 2.7278 72.6377 4.5827
49 1 62.8405 93.8166 72.8416
50 1 27.9306 36.1135 19.7044
51 1 70.5397 91.9677 26.8631
52 1 88.0011 8.7431 54.0408
53 1 7.1711 67.5034 53.4628
54 1 2.0092 20.1691 70.6901
55 1 38.3183 4.8309 74.2585
56 1 74.1796 67.6923 36.1851
57 1 83.1417 26.8020 89.4123
58 1 80.4207 62.1624 40.7653
59 1 11.5730 21.2162 8.2002
60 1 30.2760 27.3054 27.8228
61 1 85.5777 20.8109 80.0616
62 1 64.8122 18.3872 74.1223
63 1 44.1043 79.5667 54.0789
64 1 18.5125 58.8837 27.5695
65 1 21.3765 22.0714 14.5347
66 1 82.5126 10.5695 94.2801
67 1 67.3002 51.0040 56.0963
68 1 54.6129 73.2652 43.4583
69 1 78.4107 26.7584 38.8389
70 1 29.8716 55.2295 50.1668
71 1 99.2260 83.8120 19.3603
72 1 68.0655 83.8149 9.7069
73 1 77.2039 33.7262 3.6676
74 1 97.9163 13.7850 59.1334
75 1 51.5139 22.4968 91.2202
76 1 22.4659 12.3787 3.9319
77 1 17.0102 33.8965 97.1564
78 1 87.6278 75.1185 75.5975
79 1 21.5343 53.5323 36.6974
80 1 31.8276 5.1583 47.4245
81 1 21.3161 85.2129 12.1836
82 1 55.4890 47.4799 96.7210
83 1 26.0879 88.9607 69.0721
84 1 24.4639 51.0944 69.1298
85 1 98.0023 68.8725 45.3855
86 1 91.9176 33.8351 56.1771
87 1 69.5083 53.1689 36.9433
88 1 71.4683 76.2690 92.5710
89 1 57.5995 80.8162 22.1695
90 1 92.3301 5.0336 67.9996
91 1 93.3886 68.8945 12.1567
92 1 38.9809 13.4791 20.8191
93 1 76.5796 22.8233 12.6695
94 1 43.1316 33.3365 32.9588
95 1 95.2738 57.4415 87.8681
96 1 8.0440 62.8589 0.5714
97 1 94.5088 54.6774 9.4068
98 1 57.3094 29.9459 82.4740
99 1 48.3984 60.8622 46.6855
100 1 17.7171 82.2205 54.2433
ITEM: TIMESTEP
5005
ITEM: NUMBER OF ATOMS
75165
ITEM: BOX BOUNDS pp pp pp
0.0 100
0.0 100
0.0 100
ITEM: ATOMS id type x y z
1 1 85.8447 20.9458 56.1160
2 1 35.2868 29.7275 71.2066
3 1 65.7539 68.5298 12.6696
4 1 90.8373 18.4479 73.9543
5 1 52.4752 38.8715 94.0740
6 1 85.8455 30.2058 12.4421
7 1 84.1007 69.1200 68.6460
8 1 27.8854 64.1251 92.5772
9 1 41.6062 69.1090 20.3479
10 1 21.7320 59.3068 90.0612
11 1 78.0811 82.5571 21.7680
12 1 67.0138 33.6399 63.5951
13 1 39.3400 88.6970 83.4097
14 1 83.3201 84.8853 25.1261
15 1 8.0001 8.6108 95.0184
16 1 63.8353 10.2221 87.3660
17 1 25.2555 56.4110 12.5724
18 1 6.0884 62.4910 30.8755
19 1 31.5378 66.7640 69.5336
20 1 66.9633 1.1648 61.1335
21 1 35.9798 12.6546 94.7603
22 1 57.9085 43.7292 29.4825
23 1 39.1879 79.0848 63.9070
24 1 41.6404 5.5302 43.2374
25 1 82.2271 45.1270 66.1734
26 1 78.4286 69.2735 16.1066
27 1 65.3635 4.3589 60.7946
28 1 33.3219 50.0712 91.2544
29 1 4.6106 45.6847 66.6721
30 1 40.4719 83.1449 13.6804
31 1 28.7779 85.5504 36.5825
32 1 40.9137 39.5549 36.4215
33 1 12.6648 39.4140 5.8818
34 1 87.8302 29.5107 75.6391
35 1 25.5631 7.9165 15.7019
36 1 81.8655 73.7703 0.5227
37 1 76.8983 52.4771 62.8256
38 1 60.5460 81.1203 30.4500
39 1 77.0864 79.8941 69.6592
40 1 95.8912 93.6479 95.2374
41 1 17.4069 80.1470 49.3106
42 1 30.9354 40.5981 85.9543
43 1 64.2902 30.2766 69.9782
44 1 97.0776 31.0203 46.9895
45 1 20.6213 27.8553 98.0304
46 1 37.1570 42.4217 59.1447
47 1 5.0926 17.7451 31.4479
48 1 43.5499 83.9308 77.2163
49 1 55.6689 57.7828 68.0408
50 1 36.0645 41.6265 13.2214
51 1 25.7420 46.9775 52.4612
52 1 48.8230 4.3648 10.7041
53 1 24.7826 87.9796 35.7590
54 1 93.2456 44.8438 14.8244
55 1 78.1648 75.1050 21.2236
56 1 40.5913 91.8835 17.1200
57 1 53.2798 14.0576 80.2551
58 1 91.6175 36.1689 75.0254
59 1 44.0769 99.0080 16.5071
60 1 64.7315 50.5594 15.5219
61 1 2.7415 59.9326 26.0067
62 1 81.9870 85.5540 92.0414
63 1 10.9005 90.2456 30.7074
64 1 68.6614 13.1589 92.1249
65 1 41.3714 70.1198 1.3567
66 1 40.6374 49.7068 85.4881
67 1 59.9930 91.0549 40.9441
68 1 94.7616 15.9168 66.1554
69 1 82.6437 69.2996 37.5911
70 1 91.9827 7.7992 67.3560
71 1 20.1924 35.8726 34.8827
72 1 18.4765 87.7471 43.9582
73 1 67.1325 88.2483 82.6554
74 1 95.5353 85.8838 27.3380
75 1 33.0248 48.1911 66.5678
76 1 64.4662 88.5940 33.1743
77 1 13.0003 9.4644 75.7130
78 1 56.1778 33.9301 50.9011
79 1 68.2944 91.7741 73.8309
80 1 55.7535 7.0603 35.8209
81 1 2.6193 8.2582 75.6535
82 1 38.0328 70.0354 82.7249
83 1 50.8421 36.0535 26.3102
84 1 64.7342 58.7520 27.4742
85 1 79.9547 72.2075 88.7174
86 1 38.4208 34.4369 3.2491
87 1 62.9488 48.6730 26.2163
88 1 64.8666 2.6921 98.3963
89 1 0.3122 69.1879 91.8583
90 1 87.7069 5.6722 77.7902
91 1 38.8983 29.4035 39.0599
92 1 12.8673 89.2280 89.7702
93 1 77.1532 41.4263 76.1657
94 1 0.1592 28.3914 57.9556
95 1 89.5729 56.4821 89.2303
96 1 41.9456 17.1649 70.8002
97 1 90.4408 33.2713 21.7621
98 1 20.7556 11.1988 63.0777
99 1 87.1878 43.4932 23.8773
100 1 38.4333 56.2055 97.7095
ITEM: TIMESTEP
6006
ITEM: NUMBER OF ATOMS
75165
ITEM: BOX BOUNDS pp pp pp
0.0 100
0.0 100
0.0 100
ITEM: ATOMS id type x y z
1 1 23.1413 76.5774 23.7714
2 1 77.5225 89.9068 13.1514
3 1 63.6815 63.3931 50.3429
4 1 12.6020 32.0888 27.0873
5 1 89.1395 70.1315 12.3722
6 1 49.8419 56.0544 2.2967
7 1 36.3940 10.2797 86.6776
8 1 46.2676 19.2128 30.1971
9 1 47.5437 40.9942 83.8392
10 1 18.8494 37.7427 77.1778
11 1 14.2810 94.3549 19.1515
12 1 53.5576 35.6165 97.2615
13 1 52.6109 25.7817 68.1473
14 1 39.2023 42.0064 27.8360
15 1 0.8040 37.4992 59.0746
16 1 39.5069 22.0908 51.8886
17 1 61.2212 96.3512 89.1845
18 1 96.5858 18.7275 6.9638
19 1 51.9601 96.6262 29.4631
20 1 46.3482 41.9289 75.4967
21 1 41.6924 32.9007 36.3897
22 1 7.7379 51.7055 43.7949
23 1 63.4361 54.3615 21.8989
24 1 59.1088 24.2490 58.2120
25 1 0.5005 16.2161 25.7735
26 1 36.7623 74.6346 73.9640
27 1 81.5872 84.3945 51.8719
28 1 80.6601 49.2753 98.5439
29 1 19.8501 45.6289 41.1933
30 1 87.4507 75.1552 25.5624
31 1 70.7978 9.4222 71.5630
32 1 94.5106 49.6420 2.1478
33 1 0.9871 62.7720 69.9115
34 1 72.6058 52.8652 46.3844
35 1 45.2490 99.8719 33.1030
36 1 18.0697 48.3720 39.6364
37 1 1.1979 77.2814 19.5390
38 1 29.7367 5.0578 83.5376
39 1 92.0716 50.9589 14.6011
40 1 58.6277 83.1749 31.4061
41 1 40.2967 26.3955 75.2069
42 1 84.2170 41.4117 75.4503
43 1 86.4432 25.9184 72.0573
44 1 37.5445 58.5344 71.4367
45 1 55.3198 66.4972 27.0249
46 1 51.2515 29.7906 70.9599
47 1 68.1882 44.5302 21.8507
48 1 64.8161 62.7300 77.9193
49 1 18.0891 79.2665 80.6561
50 1 36.3161 92.4250 16.0805
51 1 51.9589 47.5025 62.9926
52 1 77.3496 79.4928 88.9531
53 1 55.0961 10.2247 85.9222
54 1 6.4669 87.6767 45.6977
55 1 89.8964 46.2045 30.5527
56 1 24.2538 61.8952 52.1587
57 1 42.2396 44.4093 32.1160
58 1 47.6408 18.2838 46.1249
59 1 46.1429 45.2016 18.9527
60 1 84.0490 34.8187 44.9032
61 1 35.5004 47.9560 79.7085
62 1 62.6673 25.7275 73.7341
63 1 3.3955 74.3029 50.8178
64 1 29.8957 88.3760 89.4647
65 1 97.2810 75.0177 2.6378
66 1 24.7646 47.5328 51.8861
67 1 14.7610 46.8668 42.7472
68 1 38.2048 56.7520 3.0863
69 1 8.6165 62.7379 3.2434
70 1 8.6012 13.0532 95.0030
71 1 22.3279 71.9531 57.3731
72 1 63.5846 66.4306 52.2217
73 1 69.9581 41.4845 90.7019
74 1 96.4179 21.0601 81.0139
75 1 54.7201 79.5109 67.0689
76 1 78.2209 44.6922 4.1349
77 1 63.2024 51.4605 52.5149
78 1 6.7996 84.6079 75.6308
79 1 56.7955 52.2828 10.1312
80 1 49.8414 12.0607 82.3562
81 1 93.9567 28.2918 18.8842
82 1 94.3746 80.5587 5.6812
83 1 0.3781 59.5110 39.2684
84 1 53.8824 45.6968 74.1769
85 1 57.2396 86.4480 3.3281
86 1 65.7418 89.1082 36.1902
87 1 51.8705 6.8857 50.8491
88 1 91.5572 63.1188 84.4352
89 1 60.3942 75.0198 55.0495
90 1 60.1905 61.0858 71.7510
91 1 4.2712 60.0856 75.9109
92 1 36.4882 36.4646 91.8190
93 1 93.8770 3.9761 84.6304
94 1 55.4478 73.7444 99.1888
95 1 29.2694 39.8700 8.4729
96 1 68.9122 47.4622 41.8722
97 1 27.5722 8.5984 66.9619
98 1 74.9032 50.7001 7.1071
99 1 81.4517 2.0325 73.0457
100 1 2.5352 52.4290 28.9388
ITEM: TIMESTEP
7007
ITEM: NUMBER OF ATOMS
75165
ITEM: BOX BOUNDS pp pp pp
0.0 100
0.0 100
0.0 100
ITEM: ATOMS id type x y z
1 1 85.9342 12.0444 6.4242
2 1 91.5868 7.0428 1.0879
3 1 36.7883 76.1148 83.1192
4 1 20.8070 38.5237 66.0638
5 1 3.5539 37.7179 36.2668
6 1 39.1320 22.0823 59.8404
7 1 69.2103 13.0086 93.6774
8 1 64.6225 75.7611 89.8600
9 1 21.4452 89.6930 70.4754
10 1 2.8292 88.3441 21.4087
11 1 33.9516 77.6860 13.1083
12 1 89.2554 25.2585 72.9575
13 1 92.6077 99.6607 48.1507
14 1 80.5423 75.2372 54.5178
15 1 6.1841 2.0803 2.4275
16 1 80.1406 41.5647 66.4679
17 1 46.5841 18.6247 37.1987
18 1 56.8717 68.2202 15.5691
19 1 23.4979 61.4884 97.8485
20 1 80.0503 39.8698 67.2051
21 1 26.0127 30.7900 46.7574
22 1 8.8861 23.5119 10.9978
23 1 35.1258 9.4193 51.0241
24 1 47.2177 22.5687 65.7916
25 1 7.1058 13.9457 78.2562
26 1 34.0355 73.2107 54.0035
27 1 1.3484 73.5079 80.2770
28 1 34.8733 35.7103 58.8141
29 1 10.4262 72.9499 65.2378
30 1 43.6965 86.2991 13.6674
31 1 18.0439 2.9138 22.5268
32 1 69.3442 16.1702 19.5663
33 1 37.6054 60.8246 84.2423
34 1 11.0282 63.2460 51.2606
35 1 35.6162 68.2375 37.6568
36 1 47.7119 16.7303 14.4969
37 1 10.1824 67.9183 49.7730
38 1 62.2587 35.1876 4.2914
39 1 87.8573 52.2295 31.6444
40 1 0.3567 12.7974 92.5748
41 1 82.3983 16.8383 71.8496
42 1 97.2182 51.2008 30.7893
43 1 26.0548 72.6500 68.1551
44 1 90.1832 93.6961 53.9812
45 1 77.0392 8.0792 30.9441
46 1 84.5135 37.2229 84.8852
47 1 79.8266 36.6441 34.5779
48 1 68.3379 12.1087 72.3474
49 1 99.5895 50.7731 61.2366
50 1 25.0869 32.6058 37.1323
51 1 61.2824 74.5735 18.3666
52 1 84.0523 83.1881 46.8658
53 1 93.2358 74.6871 67.3612
54 1 88.4658 53.9680 43.5335
55 1 63.4832 41.4637 16.7640
56 1 35.1687 74.8118 68.3967
57 1 67.4459 3.2539 98.5437
58 1 71.6300 63.3429 98.8825
59 1 93.4663 98.3657 11.7851
60 1 85.8571 47.6104 45.4052
61 1 47.1672 61.4909 96.1961
62 1 63.3832 47.3077 73.3709
63 1 19.4998 97.2771 0.0614
64 1 38.2410 12.2371 85.3407
65 1 36.5753 10.9881 28.4269
66 1 95.2889 51.0362 44.6487
67 1 34.8200 51.3865 58.3246
68 1 47.6040 76.6629 18.9911
69 1 8.7345 50.0257 88.2506
70 1 44.9218 72.7027 90.4083
71 1 87.2037 77.1906 71.9310
72 1 91.7318 44.8553 25.3122
73 1 14.4844 68.0355 10.9320
74 1 10.1202 60.5572 38.9780
75 1 17.0249 89.3314 89.8044
76 1 82.7287 39.6433 83.8414
77 1 91.7218 71.9168 88.0272
78 1 97.5905 54.4652 13.6955
79 1 72.8216 63.3319 28.8715
80 1 57.5745 62.2693 22.4295
81 1 70.6496 12.2823 32.8892
82 1 57.0127 56.5515 26.1842
83 1 51.5611 19.2366 11.2307
84 1 99.8854 23.0861 21.2828
85 1 66.9072 44.0456 60.2121
86 1 75.2108 81.6948 31.9268
87 1 11.8750 13.4271 3.7165
88 1 24.5543 40.6184 67.3191
89 1 32.8515 27.2332 94.4617
90 1 66.3363 24.0994 80.1629
91 1 0.7290 57.2212 32.4453
92 1 86.4807 85.1286 66.1101
93 1 76.8221 87.1758 36.4732
94 1 51.7432 98.6408 81.3208
95 1 38.1073 14.1181 20.3325
96 1 36.3797 83.7910 54.7400
97 1 13.8670 99.5095 16.6884
98 1 15.2386 84.4423 32.1805
99 1 52.9839 35.2419 12.2028
100 1 10.9624 63.0395 31.9616
ITEM: TIMESTEP
8008
ITEM: NUMBER OF ATOMS
75165
ITEM: BOX BOUNDS pp pp pp
0.0 100
0.0 100
0.0 100
ITEM: ATOMS id type x y z
1 1 34.9441 69.1948 43.4456
2 1 39.8322 65.5496 24.9439
3 1 94.3800 83.2267 83.8072
4 1 33.5970 87.7964 48.0174
5 1 25.9276 37.4719 17.7832
6 1 43.9722 48.8067 26.3915
7 1 43.4478 73.4209 89.4007
8 1 47.2808 82.2425 12.2581
9 1 3.8909 10.1079 65.3481
10 1 30.6833 95.4206 42.3659
11 1 12.7927 76.9624 64.6559
12 1 84.9903 86.0495 84.7317
13 1 25.4159 60.6057 11.7961
14 1 86.5097 97.0955 19.3028
15 1 57.3524 98.2331 56.3843
16 1 64.1003 10.9803 57.0337
17 1 91.0760 2.0684 49.6896
18 1 2.4457 40.5304 94.2447
19 1 87.7254 60.0138 9.0594
20 1 13.1023 17.3012 15.1135
21 1 64.7166 51.9935 96.9791
22 1 7.0510 72.5809 23.7601
23 1 91.8949 23.3973 4.1193
24 1 30.8709 37.6676 84.5505
25 1 24.8306 21.2109 85.3956
26 1 72.9445 91.1748 34.9178
27 1 80.7050 22.3769 24.6758
28 1 61.8561 48.8802 15.7635
29 1 38.0500 66.8438 39.9411
30 1 67.3459 17.1477 24.6308
31 1 90.4134 96.9142 26.5924
32 1 86.0128 3.0977 84.0123
33 1 45.4567 20.9432 84.1603
34 1 1.9919 90.6680 18.3190
35 1 61.7108 59.3593 59.9794
36 1 4.9163 82.9767 30.2460
37 1 17.1743 65.0732 14.4673
38 1 35.2496 2.4552 69.3811
39 1 87.0149 94.5647 87.8355
40 1 66.8054 65.9505 86.4397
41 1 54.4277 51.0818 65.3872
42 1 6.0869 6.3297 55.0161
43 1 14.6944 47.8408 57.4076
44 1 55.4738 55.1077 19.3145
45 1 11.1400 31.7234 60.1296
46 1 49.2178 50.1818 88.2711
47 1 29.0227 42.1832 55.3082
48 1 82.1105 43.7427 90.7523
49 1 33.8179 26.7690 31.9283
50 1 11.9014 39.6684 58.9533
51 1 83.5256 86.5793 22.3666
52 1 28.8723 51.8832 63.4248
53 1 62.6432 82.0795 34.1371
54 1 36.2310 50.3391 76.5819
55 1 71.9356 82.5910 79.6600
56 1 89.0356 53.7346 82.8211
57 1 20.0726 20.3449 29.2605
58 1 30.8107 97.4761 72.5787
59 1 77.7085 99.8824 36.4532
60 1 0.5615 84.8938 45.1581
61 1 4.3828 82.4080 32.9602
62 1 34.7343 71.5056 85.8734
63 1 91.9748 29.8843 7.9438
64 1 47.1863 43.8148 70.5676
65 1 10.7880 90.2303 53.4233
66 1 21.8694 65.8219 69.7013
67 1 17.4639 37.8405 95.5480
68 1 18.6555 83.7663 17.4647
69 1 44.6437 50.5517 62.0435
70 1 49.1897 14.1522 33.6970
71 1 70.1486 37.2539 95.8263
72 1 36.6728 38.2938 12.5621
73 1 47.7032 90.1981 50.2263
74 1 72.8428 26.6716 3.7167
75 1 14.3322 36.3829 38.3186
76 1 7.3818 54.8486 68.1006
77 1 6.4927 81.0796 41.1839
78 1 73.9001 44.2713 20.5318
79 1 57.1707 74.7870 63.4059
80 1 45.5433 30.9257 88.1903
81 1 70.3304 81.6456 72.3472
82 1 78.6673 86.3137 52.1035
83 1 4.9075 52.5883 69.7543
84 1 0.3296 86.5393 34.1242
85 1 67.4975 33.8573 80.0011
86 1 33.4611 30.9341 73.9004
87 1 35.9179 0.8986 8.0348
88 1 55.2368 38.8933 68.1117
89 1 83.0819 31.0250 46.1234
90 1 31.9008 51.8626 94.9571
91 1 18.3418 14.5725 25.5813
92 1 37.3675 49.1240 29.3656
93 1 18.6447 66.6857 32.9982
94 1 56.1234 49.7443 15.6479
95 1 84.9208 30.8258 52.7244
96 1 86.9879 42.3868 4.5692
97 1 18.6096 58.5338 93.3472
98 1 26.3102 4.7860 8.3005
99 1 1.6042 19.7578 79.3194
100 1 27.0616 37.1186 28.1443
ITEM: TIMESTEP
9009
ITEM: NUMBER OF ATOMS
75165
ITEM: BOX BOUNDS pp pp pp
0.0 100
0.0 100
0.0 100
ITEM: ATOMS id type x y z
1 1 97.5372 28.4568 24.9276
2 1 30.2089 85.7291 44.6005
3 1 14.2202 0.5244 51.9036
4 1 26.4715 87.4172 92.5548
5 1 58.2613 20.7036 49.3989
6 1 94.3626 13.2244 13.5100
7 1 69.7821 49.5604 71.5378
8 1 90.8565 60.0141 25.5318
9 1 98.9895 3.6639 69.3852
10 1 38.1942 18.2348 40.3545
11 1 47.0817 23.9345 90.1723
12 1 54.6966 14.0216 21.4062
13 1 9.7477 76.0854 43.6766
14 1 31.5317 53.4722 94.1452
15 1 44.1057 2.9451 91.8368
16 1 24.1025 36.5538 49.2332
17 1 6.2100 63.1303 77.1651
18 1 2.0522 87.1236 86.5389
19 1 76.9165 93.2938 4.9686
20 1 32.5718 67.5736 58.6545
21 1 6.1015 92.7609 95.8012
22 1 24.8255 65.5585 32.2684
23 1 25.2674 57.0491 38.4575
24 1 90.4250 43.9237 4.8590
25 1 42.3953 52.7723 27.5454
26 1 2.1849 32.5156 72.4967
27 1 91.4070 12.6606 69.6745
28 1 31.5926 66.2474 46.1904
29 1 56.7640 54.5540 45.9841
30 1 79.7127 84.4136 15.0327
31 1 43.4997 72.7167 21.9916
32 1 91.3993 25.1399 88.0413
33 1 6.5548 84.8749 50.5647
34 1 78.3992 56.0643 42.3242
35 1 39.4288 82.0325 90.1600
36 1 99.9336 38.6117 45.3171
37 1 48.3274 56.0271 30.5525
38 1 46.5366 83.2346 46.8962
39 1 51.1107 58.4517 26.2834
40 1 14.4318 75.2713 9.7741
41 1 35.7976 41.7065 70.6537
42 1 41.8766 3.9503 29.6667
43 1 60.2449 99.0576 69.3385
44 1 46.2451 65.2789 69.3013
45 1 16.8553 12.8242 57.9512
46 1 87.1232 30.3604 19.1519
47 1 21.2944 41.3759 3.8659
48 1 20.8257 38.3058 61.1704
49 1 36.7401 75.0223 56.0302
50 1 41.3924 89.0024 37.5460
51 1 76.7644 32.3378 52.0419
52 1 92.0889 48.8213 80.8246
53 1 35.8296 73.4593 33.3446
54 1 57.7988 34.2818 35.4168
55 1 85.7368 47.8667 80.1182
56 1 37.5466 58.0322 32.1742
57 1 93.2476 32.3252 9.5352
58 1 25.5953 38.7778 40.5987
59 1 98.1507 94.7405 11.8229
60 1 30.6314 51.6665 60.7873
61 1 39.0453 66.0429 42.2028
62 1 18.7576 88.9344 34.3620
63 1 13.9523 10.8367 51.7534
64 1 92.0169 86.8812 92.0820
65 1 35.0618 99.8912 79.7900
66 1 45.3004 70.2879 89.3052
67 1 19.9583 33.4772 9.0202
68 1 49.6502 67.9547 29.3701
69 1 12.2843 18.2491 26.2859
70 1 18.1661 72.0163 24.0506
71 1 62.6696 25.2808 3.4422
72 1 36.4834 86.9124 51.2600
73 1 37.1597 25.9980 84.6476
74 1 76.2508 9.7460 73.5512
75 1 91.4091 11.6444 19.6735
76 1 44.8046 99.5049 54.2748
77 1 90.3495 38.5605 63.8484
78 1 7.2239 79.7497 7.7351
79 1 59.5862 41.3019 43.7776
80 1 99.3158 69.5539 99.9746
81 1 5.8825 61.6504 67.9834
82 1 7.5932 44.7297 3.7630
83 1 28.7313 0.8616 9.9870
84 1 43.6020 53.3770 32.5927
85 1 52.4652 37.4179 89.5279
86 1 30.3837 64.8205 9.5552
87 1 40.2863 59.2278 81.4219
88 1 97.2641 37.2297 39.6949
89 1 29.2826 84.0102 8.7869
90 1 29.5163 81.4010 29.9248
91 1 12.2283 97.7335 54.6498
92 1 37.2758 62.4485 5.5993
93 1 98.4168 51.2342 65.3932
94 1 64.1855 54.7865 12.3790
95 1 0.5300 91.0906 29.2547
96 1 36.9328 51.5035 28.2700
97 1 33.4505 93.9873 91.3456
98 1 3.9538 49.5180 47.3996
99 1 4.6201 22.5112 2.9290
100 1 23.8513 59.2646 34.9329
ITEM: TIMESTEP
10010
ITEM: NUMBER OF ATOMS
75165
ITEM: BOX BOUNDS pp pp pp
0.0 100
0.0 100
0.0 100
ITEM: ATOMS id type x y z